r 0.030032 0 1 tcp 40 ------- 0 0.0 3.0 0 0
r 0.040832 1 2 tcp 40 ------- 0 0.0 3.0 0 0
r 0.050864 2 3 tcp 40 ------- 0 0.0 3.0 0 0
r 0.060896 3 2 ack 40 ------- 0 3.0 0.0 0 17
r 0.070928 2 1 ack 40 ------- 0 3.0 0.0 0 17
r 0.08096 1 0 ack 40 ------- 0 3.0 0.0 0 17
r 0.091792 0 1 tcp 1040 ------- 0 0.0 3.0 1 41
r 0.092624 0 1 tcp 1040 ------- 0 0.0 3.0 2 42
r 0.102965 1 2 tcp 1040 ------- 0 0.0 3.0 1 41
r 0.103797 1 2 tcp 1040 ------- 0 0.0 3.0 2 42
r 0.113797 2 3 tcp 1040 ------- 0 0.0 3.0 1 41
r 0.114629 2 3 tcp 1040 ------- 0 0.0 3.0 2 42
r 0.123829 3 2 ack 40 ------- 0 3.0 0.0 1 67
r 0.124661 3 2 ack 40 ------- 0 3.0 0.0 2 69
r 0.133861 2 1 ack 40 ------- 0 3.0 0.0 1 67
r 0.134693 2 1 ack 40 ------- 0 3.0 0.0 2 69
r 0.143893 1 0 ack 40 ------- 0 3.0 0.0 1 67
r 0.144725 1 0 ack 40 ------- 0 3.0 0.0 2 69
r 0.154725 0 1 tcp 1040 ------- 0 0.0 3.0 3 92
r 0.155557 0 1 tcp 1040 ------- 0 0.0 3.0 4 93
r 0.156389 0 1 tcp 1040 ------- 0 0.0 3.0 5 95
r 0.157221 0 1 tcp 1040 ------- 0 0.0 3.0 6 96
r 0.165632 1 2 tcp 1040 ------- 0 0.0 3.0 3 92
r 0.167264 1 2 tcp 1040 ------- 0 0.0 3.0 4 93
r 0.168096 1 2 tcp 1040 ------- 0 0.0 3.0 5 95
r 0.169728 1 2 tcp 1040 ------- 0 0.0 3.0 6 96
r 0.176464 2 3 tcp 1040 ------- 0 0.0 3.0 3 92
r 0.178096 2 3 tcp 1040 ------- 0 0.0 3.0 4 93
r 0.178928 2 3 tcp 1040 ------- 0 0.0 3.0 5 95
r 0.18056 2 3 tcp 1040 ------- 0 0.0 3.0 6 96
r 0.186496 3 2 ack 40 ------- 0 3.0 0.0 3 120
r 0.188128 3 2 ack 40 ------- 0 3.0 0.0 4 123
r 0.18896 3 2 ack 40 ------- 0 3.0 0.0 5 124
r 0.190592 3 2 ack 40 ------- 0 3.0 0.0 6 126
r 0.196528 2 1 ack 40 ------- 0 3.0 0.0 3 120
r 0.19816 2 1 ack 40 ------- 0 3.0 0.0 4 123
r 0.198992 2 1 ack 40 ------- 0 3.0 0.0 5 124
r 0.200624 2 1 ack 40 ------- 0 3.0 0.0 6 126
r 0.20656 1 0 ack 40 ------- 0 3.0 0.0 3 120
r 0.208192 1 0 ack 40 ------- 0 3.0 0.0 4 123
r 0.209024 1 0 ack 40 ------- 0 3.0 0.0 5 124
r 0.210656 1 0 ack 40 ------- 0 3.0 0.0 6 126
r 0.217392 0 1 tcp 1040 ------- 0 0.0 3.0 7 147
r 0.218224 0 1 tcp 1040 ------- 0 0.0 3.0 8 148
r 0.219056 0 1 tcp 1040 ------- 0 0.0 3.0 9 150
r 0.219888 0 1 tcp 1040 ------- 0 0.0 3.0 10 151
r 0.22072 0 1 tcp 1040 ------- 0 0.0 3.0 11 153
r 0.221552 0 1 tcp 1040 ------- 0 0.0 3.0 12 154
r 0.222384 0 1 tcp 1040 ------- 0 0.0 3.0 13 156
r 0.223216 0 1 tcp 1040 ------- 0 0.0 3.0 14 157
r 0.228299 1 2 tcp 1040 ------- 0 0.0 3.0 7 147
r 0.229931 1 2 tcp 1040 ------- 0 0.0 3.0 8 148
r 0.230763 1 2 tcp 1040 ------- 0 0.0 3.0 9 150
r 0.232395 1 2 tcp 1040 ------- 0 0.0 3.0 10 151
r 0.234027 1 2 tcp 1040 ------- 0 0.0 3.0 11 153
r 0.234859 1 2 tcp 1040 ------- 0 0.0 3.0 12 154
r 0.236491 1 2 tcp 1040 ------- 0 0.0 3.0 13 156
r 0.237323 1 2 tcp 1040 ------- 0 0.0 3.0 14 157
r 0.239131 2 3 tcp 1040 ------- 0 0.0 3.0 7 147
r 0.240763 2 3 tcp 1040 ------- 0 0.0 3.0 8 148
r 0.241595 2 3 tcp 1040 ------- 0 0.0 3.0 9 150
r 0.243227 2 3 tcp 1040 ------- 0 0.0 3.0 10 151
r 0.244859 2 3 tcp 1040 ------- 0 0.0 3.0 11 153
r 0.245691 2 3 tcp 1040 ------- 0 0.0 3.0 12 154
r 0.247323 2 3 tcp 1040 ------- 0 0.0 3.0 13 156
r 0.248155 2 3 tcp 1040 ------- 0 0.0 3.0 14 157
r 0.249163 3 2 ack 40 ------- 0 3.0 0.0 7 179
r 0.250795 3 2 ack 40 ------- 0 3.0 0.0 8 182
r 0.251627 3 2 ack 40 ------- 0 3.0 0.0 9 183
r 0.253259 3 2 ack 40 ------- 0 3.0 0.0 10 185
r 0.254891 3 2 ack 40 ------- 0 3.0 0.0 11 188
r 0.255723 3 2 ack 40 ------- 0 3.0 0.0 12 189
r 0.257355 3 2 ack 40 ------- 0 3.0 0.0 13 191
r 0.258187 3 2 ack 40 ------- 0 3.0 0.0 14 193
r 0.259195 2 1 ack 40 ------- 0 3.0 0.0 7 179
r 0.260827 2 1 ack 40 ------- 0 3.0 0.0 8 182
r 0.261659 2 1 ack 40 ------- 0 3.0 0.0 9 183
r 0.263291 2 1 ack 40 ------- 0 3.0 0.0 10 185
r 0.264923 2 1 ack 40 ------- 0 3.0 0.0 11 188
r 0.265755 2 1 ack 40 ------- 0 3.0 0.0 12 189
r 0.267387 2 1 ack 40 ------- 0 3.0 0.0 13 191
r 0.268219 2 1 ack 40 ------- 0 3.0 0.0 14 193
r 0.269227 1 0 ack 40 ------- 0 3.0 0.0 7 179
r 0.270859 1 0 ack 40 ------- 0 3.0 0.0 8 182
r 0.271691 1 0 ack 40 ------- 0 3.0 0.0 9 183
r 0.273323 1 0 ack 40 ------- 0 3.0 0.0 10 185
r 0.274955 1 0 ack 40 ------- 0 3.0 0.0 11 188
r 0.275787 1 0 ack 40 ------- 0 3.0 0.0 12 189
r 0.277419 1 0 ack 40 ------- 0 3.0 0.0 13 191
r 0.278251 1 0 ack 40 ------- 0 3.0 0.0 14 193
r 0.280059 0 1 tcp 1040 ------- 0 0.0 3.0 15 210
r 0.280891 0 1 tcp 1040 ------- 0 0.0 3.0 16 211
r 0.281723 0 1 tcp 1040 ------- 0 0.0 3.0 17 213
r 0.282555 0 1 tcp 1040 ------- 0 0.0 3.0 18 214
r 0.283387 0 1 tcp 1040 ------- 0 0.0 3.0 19 216
r 0.284219 0 1 tcp 1040 ------- 0 0.0 3.0 20 217
r 0.285051 0 1 tcp 1040 ------- 0 0.0 3.0 21 219
r 0.285883 0 1 tcp 1040 ------- 0 0.0 3.0 22 220
r 0.286715 0 1 tcp 1040 ------- 0 0.0 3.0 23 222
r 0.287547 0 1 tcp 1040 ------- 0 0.0 3.0 24 223
r 0.288379 0 1 tcp 1040 ------- 0 0.0 3.0 25 225
r 0.289211 0 1 tcp 1040 ------- 0 0.0 3.0 26 226
r 0.290043 0 1 tcp 1040 ------- 0 0.0 3.0 27 228
r 0.290875 0 1 tcp 1040 ------- 0 0.0 3.0 28 229
r 0.290965 1 2 tcp 1040 ------- 0 0.0 3.0 15 210
r 0.291707 0 1 tcp 1040 ------- 0 0.0 3.0 29 231
r 0.292539 0 1 tcp 1040 ------- 0 0.0 3.0 30 232
r 0.292597 1 2 tcp 1040 ------- 0 0.0 3.0 16 211
r 0.293429 1 2 tcp 1040 ------- 0 0.0 3.0 17 213
r 0.295061 1 2 tcp 1040 ------- 0 0.0 3.0 18 214
r 0.296693 1 2 tcp 1040 ------- 0 0.0 3.0 19 216
r 0.297525 1 2 tcp 1040 ------- 0 0.0 3.0 20 217
r 0.299157 1 2 tcp 1040 ------- 0 0.0 3.0 21 219
r 0.299989 1 2 tcp 1040 ------- 0 0.0 3.0 22 220
r 0.301621 1 2 tcp 1040 ------- 0 0.0 3.0 23 222
r 0.301797 2 3 tcp 1040 ------- 0 0.0 3.0 15 210
r 0.303253 1 2 tcp 1040 ------- 0 0.0 3.0 24 223
r 0.303429 2 3 tcp 1040 ------- 0 0.0 3.0 16 211
r 0.304085 1 2 tcp 1040 ------- 0 0.0 3.0 25 225
r 0.304261 2 3 tcp 1040 ------- 0 0.0 3.0 17 213
r 0.305717 1 2 tcp 1040 ------- 0 0.0 3.0 26 226
r 0.305893 2 3 tcp 1040 ------- 0 0.0 3.0 18 214
r 0.307349 1 2 tcp 1040 ------- 0 0.0 3.0 27 228
r 0.307525 2 3 tcp 1040 ------- 0 0.0 3.0 19 216
r 0.308181 1 2 tcp 1040 ------- 0 0.0 3.0 28 229
r 0.308357 2 3 tcp 1040 ------- 0 0.0 3.0 20 217
r 0.309813 1 2 tcp 1040 ------- 0 0.0 3.0 29 231
r 0.309989 2 3 tcp 1040 ------- 0 0.0 3.0 21 219
r 0.310645 1 2 tcp 1040 ------- 0 0.0 3.0 30 232
r 0.310821 2 3 tcp 1040 ------- 0 0.0 3.0 22 220
r 0.311829 3 2 ack 40 ------- 0 3.0 0.0 15 250
r 0.312453 2 3 tcp 1040 ------- 0 0.0 3.0 23 222
r 0.313461 3 2 ack 40 ------- 0 3.0 0.0 16 253
r 0.314085 2 3 tcp 1040 ------- 0 0.0 3.0 24 223
r 0.314293 3 2 ack 40 ------- 0 3.0 0.0 17 254
r 0.314917 2 3 tcp 1040 ------- 0 0.0 3.0 25 225
r 0.315925 3 2 ack 40 ------- 0 3.0 0.0 18 256
r 0.316549 2 3 tcp 1040 ------- 0 0.0 3.0 26 226
r 0.317557 3 2 ack 40 ------- 0 3.0 0.0 19 259
r 0.318181 2 3 tcp 1040 ------- 0 0.0 3.0 27 228
r 0.318389 3 2 ack 40 ------- 0 3.0 0.0 20 260
r 0.319013 2 3 tcp 1040 ------- 0 0.0 3.0 28 229
r 0.320021 3 2 ack 40 ------- 0 3.0 0.0 21 262
r 0.320645 2 3 tcp 1040 ------- 0 0.0 3.0 29 231
r 0.320853 3 2 ack 40 ------- 0 3.0 0.0 22 264
r 0.321477 2 3 tcp 1040 ------- 0 0.0 3.0 30 232
r 0.321861 2 1 ack 40 ------- 0 3.0 0.0 15 250
r 0.322485 3 2 ack 40 ------- 0 3.0 0.0 23 266
r 0.323493 2 1 ack 40 ------- 0 3.0 0.0 16 253
r 0.324117 3 2 ack 40 ------- 0 3.0 0.0 24 269
r 0.324325 2 1 ack 40 ------- 0 3.0 0.0 17 254
r 0.324949 3 2 ack 40 ------- 0 3.0 0.0 25 270
r 0.325957 2 1 ack 40 ------- 0 3.0 0.0 18 256
r 0.326581 3 2 ack 40 ------- 0 3.0 0.0 26 272
r 0.327589 2 1 ack 40 ------- 0 3.0 0.0 19 259
r 0.328213 3 2 ack 40 ------- 0 3.0 0.0 27 275
r 0.328421 2 1 ack 40 ------- 0 3.0 0.0 20 260
r 0.329045 3 2 ack 40 ------- 0 3.0 0.0 28 276
r 0.330053 2 1 ack 40 ------- 0 3.0 0.0 21 262
r 0.330677 3 2 ack 40 ------- 0 3.0 0.0 29 278
r 0.330885 2 1 ack 40 ------- 0 3.0 0.0 22 264
r 0.331509 3 2 ack 40 ------- 0 3.0 0.0 30 280
r 0.331893 1 0 ack 40 ------- 0 3.0 0.0 15 250
r 0.332517 2 1 ack 40 ------- 0 3.0 0.0 23 266
r 0.333525 1 0 ack 40 ------- 0 3.0 0.0 16 253
r 0.334149 2 1 ack 40 ------- 0 3.0 0.0 24 269
r 0.334357 1 0 ack 40 ------- 0 3.0 0.0 17 254
r 0.334981 2 1 ack 40 ------- 0 3.0 0.0 25 270
r 0.335989 1 0 ack 40 ------- 0 3.0 0.0 18 256
r 0.336613 2 1 ack 40 ------- 0 3.0 0.0 26 272
r 0.337621 1 0 ack 40 ------- 0 3.0 0.0 19 259
r 0.338245 2 1 ack 40 ------- 0 3.0 0.0 27 275
r 0.338453 1 0 ack 40 ------- 0 3.0 0.0 20 260
r 0.339077 2 1 ack 40 ------- 0 3.0 0.0 28 276
r 0.340085 1 0 ack 40 ------- 0 3.0 0.0 21 262
r 0.340709 2 1 ack 40 ------- 0 3.0 0.0 29 278
r 0.340917 1 0 ack 40 ------- 0 3.0 0.0 22 264
r 0.341541 2 1 ack 40 ------- 0 3.0 0.0 30 280
r 0.342549 1 0 ack 40 ------- 0 3.0 0.0 23 266
r 0.342725 0 1 tcp 1040 ------- 0 0.0 3.0 31 289
r 0.343557 0 1 tcp 1040 ------- 0 0.0 3.0 32 290
r 0.344181 1 0 ack 40 ------- 0 3.0 0.0 24 269
r 0.344389 0 1 tcp 1040 ------- 0 0.0 3.0 33 292
r 0.345013 1 0 ack 40 ------- 0 3.0 0.0 25 270
r 0.345221 0 1 tcp 1040 ------- 0 0.0 3.0 34 293
r 0.346053 0 1 tcp 1040 ------- 0 0.0 3.0 35 295
r 0.346645 1 0 ack 40 ------- 0 3.0 0.0 26 272
r 0.346885 0 1 tcp 1040 ------- 0 0.0 3.0 36 296
r 0.347717 0 1 tcp 1040 ------- 0 0.0 3.0 37 298
r 0.348277 1 0 ack 40 ------- 0 3.0 0.0 27 275
r 0.348549 0 1 tcp 1040 ------- 0 0.0 3.0 38 299
r 0.349109 1 0 ack 40 ------- 0 3.0 0.0 28 276
r 0.349381 0 1 tcp 1040 ------- 0 0.0 3.0 39 301
r 0.350213 0 1 tcp 1040 ------- 0 0.0 3.0 40 302
r 0.350741 1 0 ack 40 ------- 0 3.0 0.0 29 278
r 0.351045 0 1 tcp 1040 ------- 0 0.0 3.0 41 304
r 0.351573 1 0 ack 40 ------- 0 3.0 0.0 30 280
r 0.351877 0 1 tcp 1040 ------- 0 0.0 3.0 42 305
r 0.352709 0 1 tcp 1040 ------- 0 0.0 3.0 43 307
r 0.353541 0 1 tcp 1040 ------- 0 0.0 3.0 44 308
r 0.353632 1 2 tcp 1040 ------- 0 0.0 3.0 31 289
r 0.354373 0 1 tcp 1040 ------- 0 0.0 3.0 45 310
r 0.355205 0 1 tcp 1040 ------- 0 0.0 3.0 46 311
r 0.355264 1 2 tcp 1040 ------- 0 0.0 3.0 32 290
r 0.356037 0 1 tcp 1040 ------- 0 0.0 3.0 47 313
r 0.356096 1 2 tcp 1040 ------- 0 0.0 3.0 33 292
r 0.356869 0 1 tcp 1040 ------- 0 0.0 3.0 48 314
r 0.357701 0 1 tcp 1040 ------- 0 0.0 3.0 49 316
r 0.357728 1 2 tcp 1040 ------- 0 0.0 3.0 34 293
r 0.358533 0 1 tcp 1040 ------- 0 0.0 3.0 50 317
r 0.35936 1 2 tcp 1040 ------- 0 0.0 3.0 35 295
r 0.359365 0 1 tcp 1040 ------- 0 0.0 3.0 51 319
r 0.360192 1 2 tcp 1040 ------- 0 0.0 3.0 36 296
r 0.360197 0 1 tcp 1040 ------- 0 0.0 3.0 52 320
r 0.361029 0 1 tcp 1040 ------- 0 0.0 3.0 53 322
r 0.361824 1 2 tcp 1040 ------- 0 0.0 3.0 37 298
r 0.361861 0 1 tcp 1040 ------- 0 0.0 3.0 54 323
r 0.362656 1 2 tcp 1040 ------- 0 0.0 3.0 38 299
r 0.362693 0 1 tcp 1040 ------- 0 0.0 3.0 55 325
r 0.363525 0 1 tcp 1040 ------- 0 0.0 3.0 56 326
r 0.364288 1 2 tcp 1040 ------- 0 0.0 3.0 39 301
r 0.364357 0 1 tcp 1040 ------- 0 0.0 3.0 57 328
r 0.364464 2 3 tcp 1040 ------- 0 0.0 3.0 31 289
r 0.365189 0 1 tcp 1040 ------- 0 0.0 3.0 58 329
r 0.36592 1 2 tcp 1040 ------- 0 0.0 3.0 40 302
r 0.366021 0 1 tcp 1040 ------- 0 0.0 3.0 59 331
r 0.366096 2 3 tcp 1040 ------- 0 0.0 3.0 32 290
r 0.366752 1 2 tcp 1040 ------- 0 0.0 3.0 41 304
r 0.366853 0 1 tcp 1040 ------- 0 0.0 3.0 60 332
r 0.366928 2 3 tcp 1040 ------- 0 0.0 3.0 33 292
r 0.367685 0 1 tcp 1040 ------- 0 0.0 3.0 61 334
r 0.368384 1 2 tcp 1040 ------- 0 0.0 3.0 42 305
r 0.368517 0 1 tcp 1040 ------- 0 0.0 3.0 62 335
r 0.36856 2 3 tcp 1040 ------- 0 0.0 3.0 34 293
r 0.370016 1 2 tcp 1040 ------- 0 0.0 3.0 43 307
r 0.370192 2 3 tcp 1040 ------- 0 0.0 3.0 35 295
r 0.370848 1 2 tcp 1040 ------- 0 0.0 3.0 44 308
r 0.371024 2 3 tcp 1040 ------- 0 0.0 3.0 36 296
r 0.37248 1 2 tcp 1040 ------- 0 0.0 3.0 45 310
r 0.372656 2 3 tcp 1040 ------- 0 0.0 3.0 37 298
r 0.373312 1 2 tcp 1040 ------- 0 0.0 3.0 46 311
r 0.373488 2 3 tcp 1040 ------- 0 0.0 3.0 38 299
r 0.374496 3 2 ack 40 ------- 0 3.0 0.0 31 345
r 0.374944 1 2 tcp 1040 ------- 0 0.0 3.0 47 313
r 0.37512 2 3 tcp 1040 ------- 0 0.0 3.0 39 301
r 0.376128 3 2 ack 40 ------- 0 3.0 0.0 32 348
r 0.376576 1 2 tcp 1040 ------- 0 0.0 3.0 48 314
r 0.376752 2 3 tcp 1040 ------- 0 0.0 3.0 40 302
r 0.37696 3 2 ack 40 ------- 0 3.0 0.0 33 349
r 0.377408 1 2 tcp 1040 ------- 0 0.0 3.0 49 316
r 0.377584 2 3 tcp 1040 ------- 0 0.0 3.0 41 304
r 0.378592 3 2 ack 40 ------- 0 3.0 0.0 34 351
r 0.37904 1 2 tcp 1040 ------- 0 0.0 3.0 50 317
r 0.379216 2 3 tcp 1040 ------- 0 0.0 3.0 42 305
r 0.380224 3 2 ack 40 ------- 0 3.0 0.0 35 354
r 0.380672 1 2 tcp 1040 ------- 0 0.0 3.0 51 319
r 0.380848 2 3 tcp 1040 ------- 0 0.0 3.0 43 307
r 0.381056 3 2 ack 40 ------- 0 3.0 0.0 36 355
r 0.381504 1 2 tcp 1040 ------- 0 0.0 3.0 52 320
r 0.38168 2 3 tcp 1040 ------- 0 0.0 3.0 44 308
r 0.382688 3 2 ack 40 ------- 0 3.0 0.0 37 357
r 0.383136 1 2 tcp 1040 ------- 0 0.0 3.0 53 322
r 0.383312 2 3 tcp 1040 ------- 0 0.0 3.0 45 310
r 0.38352 3 2 ack 40 ------- 0 3.0 0.0 38 359
r 0.383968 1 2 tcp 1040 ------- 0 0.0 3.0 54 323
r 0.384144 2 3 tcp 1040 ------- 0 0.0 3.0 46 311
r 0.384528 2 1 ack 40 ------- 0 3.0 0.0 31 345
r 0.385152 3 2 ack 40 ------- 0 3.0 0.0 39 361
r 0.3856 1 2 tcp 1040 ------- 0 0.0 3.0 55 325
r 0.385776 2 3 tcp 1040 ------- 0 0.0 3.0 47 313
r 0.38616 2 1 ack 40 ------- 0 3.0 0.0 32 348
r 0.386784 3 2 ack 40 ------- 0 3.0 0.0 40 364
r 0.386992 2 1 ack 40 ------- 0 3.0 0.0 33 349
r 0.387232 1 2 tcp 1040 ------- 0 0.0 3.0 56 326
r 0.387408 2 3 tcp 1040 ------- 0 0.0 3.0 48 314
r 0.387616 3 2 ack 40 ------- 0 3.0 0.0 41 365
r 0.388064 1 2 tcp 1040 ------- 0 0.0 3.0 57 328
r 0.38824 2 3 tcp 1040 ------- 0 0.0 3.0 49 316
r 0.388624 2 1 ack 40 ------- 0 3.0 0.0 34 351
r 0.389248 3 2 ack 40 ------- 0 3.0 0.0 42 367
r 0.389696 1 2 tcp 1040 ------- 0 0.0 3.0 58 329
r 0.389872 2 3 tcp 1040 ------- 0 0.0 3.0 50 317
r 0.390256 2 1 ack 40 ------- 0 3.0 0.0 35 354
r 0.39088 3 2 ack 40 ------- 0 3.0 0.0 43 370
r 0.391088 2 1 ack 40 ------- 0 3.0 0.0 36 355
r 0.391328 1 2 tcp 1040 ------- 0 0.0 3.0 59 331
r 0.391504 2 3 tcp 1040 ------- 0 0.0 3.0 51 319
r 0.391712 3 2 ack 40 ------- 0 3.0 0.0 44 371
r 0.39216 1 2 tcp 1040 ------- 0 0.0 3.0 60 332
r 0.392336 2 3 tcp 1040 ------- 0 0.0 3.0 52 320
r 0.39272 2 1 ack 40 ------- 0 3.0 0.0 37 357
r 0.393344 3 2 ack 40 ------- 0 3.0 0.0 45 373
r 0.393552 2 1 ack 40 ------- 0 3.0 0.0 38 359
r 0.393792 1 2 tcp 1040 ------- 0 0.0 3.0 61 334
r 0.393968 2 3 tcp 1040 ------- 0 0.0 3.0 53 322
r 0.394176 3 2 ack 40 ------- 0 3.0 0.0 46 375
r 0.39456 1 0 ack 40 ------- 0 3.0 0.0 31 345
r 0.394624 1 2 tcp 1040 ------- 0 0.0 3.0 62 335
r 0.3948 2 3 tcp 1040 ------- 0 0.0 3.0 54 323
r 0.395184 2 1 ack 40 ------- 0 3.0 0.0 39 361
r 0.395808 3 2 ack 40 ------- 0 3.0 0.0 47 377
r 0.396192 1 0 ack 40 ------- 0 3.0 0.0 32 348
r 0.396432 2 3 tcp 1040 ------- 0 0.0 3.0 55 325
r 0.396816 2 1 ack 40 ------- 0 3.0 0.0 40 364
r 0.397024 1 0 ack 40 ------- 0 3.0 0.0 33 349
r 0.39744 3 2 ack 40 ------- 0 3.0 0.0 48 380
r 0.397648 2 1 ack 40 ------- 0 3.0 0.0 41 365
r 0.398064 2 3 tcp 1040 ------- 0 0.0 3.0 56 326
r 0.398272 3 2 ack 40 ------- 0 3.0 0.0 49 381
r 0.398656 1 0 ack 40 ------- 0 3.0 0.0 34 351
r 0.398896 2 3 tcp 1040 ------- 0 0.0 3.0 57 328
r 0.39928 2 1 ack 40 ------- 0 3.0 0.0 42 367
r 0.399904 3 2 ack 40 ------- 0 3.0 0.0 50 383
r 0.400288 1 0 ack 40 ------- 0 3.0 0.0 35 354
r 0.400528 2 3 tcp 1040 ------- 0 0.0 3.0 58 329
r 0.400912 2 1 ack 40 ------- 0 3.0 0.0 43 370
r 0.40112 1 0 ack 40 ------- 0 3.0 0.0 36 355
r 0.401536 3 2 ack 40 ------- 0 3.0 0.0 51 386
r 0.401744 2 1 ack 40 ------- 0 3.0 0.0 44 371
r 0.40216 2 3 tcp 1040 ------- 0 0.0 3.0 59 331
r 0.402368 3 2 ack 40 ------- 0 3.0 0.0 52 387
r 0.402752 1 0 ack 40 ------- 0 3.0 0.0 37 357
r 0.402992 2 3 tcp 1040 ------- 0 0.0 3.0 60 332
r 0.403376 2 1 ack 40 ------- 0 3.0 0.0 45 373
r 0.403584 1 0 ack 40 ------- 0 3.0 0.0 38 359
r 0.404 3 2 ack 40 ------- 0 3.0 0.0 53 389
r 0.404208 2 1 ack 40 ------- 0 3.0 0.0 46 375
r 0.404624 2 3 tcp 1040 ------- 0 0.0 3.0 61 334
r 0.404832 3 2 ack 40 ------- 0 3.0 0.0 54 393
r 0.405216 1 0 ack 40 ------- 0 3.0 0.0 39 361
r 0.405392 0 1 tcp 1040 ------- 0 0.0 3.0 63 391
r 0.405456 2 3 tcp 1040 ------- 0 0.0 3.0 62 335
r 0.40584 2 1 ack 40 ------- 0 3.0 0.0 47 377
r 0.406224 0 1 tcp 1040 ------- 0 0.0 3.0 64 392
r 0.406464 3 2 ack 40 ------- 0 3.0 0.0 55 397
r 0.406848 1 0 ack 40 ------- 0 3.0 0.0 40 364
r 0.407056 0 1 tcp 1040 ------- 0 0.0 3.0 65 395
r 0.407472 2 1 ack 40 ------- 0 3.0 0.0 48 380
r 0.40768 1 0 ack 40 ------- 0 3.0 0.0 41 365
r 0.407888 0 1 tcp 1040 ------- 0 0.0 3.0 66 396
r 0.408096 3 2 ack 40 ------- 0 3.0 0.0 56 402
r 0.408304 2 1 ack 40 ------- 0 3.0 0.0 49 381
r 0.40872 0 1 tcp 1040 ------- 0 0.0 3.0 67 399
r 0.408928 3 2 ack 40 ------- 0 3.0 0.0 57 405
r 0.409312 1 0 ack 40 ------- 0 3.0 0.0 42 367
r 0.409552 0 1 tcp 1040 ------- 0 0.0 3.0 68 400
r 0.409936 2 1 ack 40 ------- 0 3.0 0.0 50 383
r 0.410384 0 1 tcp 1040 ------- 0 0.0 3.0 69 403
r 0.41056 3 2 ack 40 ------- 0 3.0 0.0 58 409
r 0.410944 1 0 ack 40 ------- 0 3.0 0.0 43 370
r 0.411216 0 1 tcp 1040 ------- 0 0.0 3.0 70 404
r 0.411568 2 1 ack 40 ------- 0 3.0 0.0 51 386
r 0.411776 1 0 ack 40 ------- 0 3.0 0.0 44 371
r 0.412048 0 1 tcp 1040 ------- 0 0.0 3.0 71 407
r 0.412192 3 2 ack 40 ------- 0 3.0 0.0 59 414
r 0.4124 2 1 ack 40 ------- 0 3.0 0.0 52 387
r 0.41288 0 1 tcp 1040 ------- 0 0.0 3.0 72 408
r 0.413024 3 2 ack 40 ------- 0 3.0 0.0 60 417
r 0.413408 1 0 ack 40 ------- 0 3.0 0.0 45 373
r 0.413712 0 1 tcp 1040 ------- 0 0.0 3.0 73 411
r 0.414032 2 1 ack 40 ------- 0 3.0 0.0 53 389
r 0.41424 1 0 ack 40 ------- 0 3.0 0.0 46 375
r 0.414544 0 1 tcp 1040 ------- 0 0.0 3.0 74 412
r 0.414656 3 2 ack 40 ------- 0 3.0 0.0 61 421
r 0.414864 2 1 ack 40 ------- 0 3.0 0.0 54 393
r 0.415376 0 1 tcp 1040 ------- 0 0.0 3.0 75 415
r 0.415488 3 2 ack 40 ------- 0 3.0 0.0 62 425
r 0.415872 1 0 ack 40 ------- 0 3.0 0.0 47 377
r 0.416208 0 1 tcp 1040 ------- 0 0.0 3.0 76 416
r 0.416496 2 1 ack 40 ------- 0 3.0 0.0 55 397
r 0.41704 0 1 tcp 1040 ------- 0 0.0 3.0 77 419
r 0.417504 1 0 ack 40 ------- 0 3.0 0.0 48 380
r 0.417856 1 2 tcp 1040 ------- 0 0.0 3.0 63 391
r 0.417872 0 1 tcp 1040 ------- 0 0.0 3.0 78 420
r 0.418128 2 1 ack 40 ------- 0 3.0 0.0 56 402
r 0.418336 1 0 ack 40 ------- 0 3.0 0.0 49 381
r 0.418704 0 1 tcp 1040 ------- 0 0.0 3.0 79 423
r 0.41896 2 1 ack 40 ------- 0 3.0 0.0 57 405
r 0.419488 1 2 tcp 1040 ------- 0 0.0 3.0 64 392
r 0.419536 0 1 tcp 1040 ------- 0 0.0 3.0 80 424
r 0.419968 1 0 ack 40 ------- 0 3.0 0.0 50 383
r 0.42032 1 2 tcp 1040 ------- 0 0.0 3.0 65 395
r 0.420368 0 1 tcp 1040 ------- 0 0.0 3.0 81 427
r 0.420592 2 1 ack 40 ------- 0 3.0 0.0 58 409
r 0.4212 0 1 tcp 1040 ------- 0 0.0 3.0 82 428
r 0.4216 1 0 ack 40 ------- 0 3.0 0.0 51 386
r 0.421952 1 2 tcp 1040 ------- 0 0.0 3.0 66 396
r 0.422032 0 1 tcp 1040 ------- 0 0.0 3.0 83 430
r 0.422224 2 1 ack 40 ------- 0 3.0 0.0 59 414
r 0.422432 1 0 ack 40 ------- 0 3.0 0.0 52 387
r 0.422864 0 1 tcp 1040 ------- 0 0.0 3.0 84 431
r 0.423056 2 1 ack 40 ------- 0 3.0 0.0 60 417
r 0.423584 1 2 tcp 1040 ------- 0 0.0 3.0 67 399
r 0.423696 0 1 tcp 1040 ------- 0 0.0 3.0 85 433
r 0.424064 1 0 ack 40 ------- 0 3.0 0.0 53 389
r 0.424416 1 2 tcp 1040 ------- 0 0.0 3.0 68 400
r 0.424528 0 1 tcp 1040 ------- 0 0.0 3.0 86 434
r 0.424688 2 1 ack 40 ------- 0 3.0 0.0 61 421
r 0.424896 1 0 ack 40 ------- 0 3.0 0.0 54 393
r 0.42536 0 1 tcp 1040 ------- 0 0.0 3.0 87 436
r 0.42552 2 1 ack 40 ------- 0 3.0 0.0 62 425
r 0.426048 1 2 tcp 1040 ------- 0 0.0 3.0 69 403
r 0.426192 0 1 tcp 1040 ------- 0 0.0 3.0 88 437
r 0.426528 1 0 ack 40 ------- 0 3.0 0.0 55 397
r 0.42688 1 2 tcp 1040 ------- 0 0.0 3.0 70 404
r 0.427024 0 1 tcp 1040 ------- 0 0.0 3.0 89 439
r 0.427856 0 1 tcp 1040 ------- 0 0.0 3.0 90 440
r 0.42816 1 0 ack 40 ------- 0 3.0 0.0 56 402
r 0.428512 1 2 tcp 1040 ------- 0 0.0 3.0 71 407
r 0.428688 0 1 tcp 1040 ------- 0 0.0 3.0 91 442
r 0.428688 2 3 tcp 1040 ------- 0 0.0 3.0 63 391
r 0.428992 1 0 ack 40 ------- 0 3.0 0.0 57 405
r 0.42952 0 1 tcp 1040 ------- 0 0.0 3.0 92 443
r 0.430144 1 2 tcp 1040 ------- 0 0.0 3.0 72 408
r 0.43032 2 3 tcp 1040 ------- 0 0.0 3.0 64 392
r 0.430352 0 1 tcp 1040 ------- 0 0.0 3.0 93 445
r 0.430624 1 0 ack 40 ------- 0 3.0 0.0 58 409
r 0.430976 1 2 tcp 1040 ------- 0 0.0 3.0 73 411
r 0.431152 2 3 tcp 1040 ------- 0 0.0 3.0 65 395
r 0.431184 0 1 tcp 1040 ------- 0 0.0 3.0 94 446
r 0.432016 0 1 tcp 1040 ------- 0 0.0 3.0 95 448
r 0.432256 1 0 ack 40 ------- 0 3.0 0.0 59 414
r 0.432608 1 2 tcp 1040 ------- 0 0.0 3.0 74 412
r 0.432784 2 3 tcp 1040 ------- 0 0.0 3.0 66 396
r 0.432848 0 1 tcp 1040 ------- 0 0.0 3.0 96 449
r 0.433088 1 0 ack 40 ------- 0 3.0 0.0 60 417
r 0.43368 0 1 tcp 1040 ------- 0 0.0 3.0 97 451
r 0.43424 1 2 tcp 1040 ------- 0 0.0 3.0 75 415
r 0.434416 2 3 tcp 1040 ------- 0 0.0 3.0 67 399
r 0.434512 0 1 tcp 1040 ------- 0 0.0 3.0 98 452
r 0.43472 1 0 ack 40 ------- 0 3.0 0.0 61 421
r 0.435072 1 2 tcp 1040 ------- 0 0.0 3.0 76 416
r 0.435248 2 3 tcp 1040 ------- 0 0.0 3.0 68 400
r 0.435344 0 1 tcp 1040 ------- 0 0.0 3.0 99 454
r 0.435552 1 0 ack 40 ------- 0 3.0 0.0 62 425
r 0.436176 0 1 tcp 1040 ------- 0 0.0 3.0 100 455
r 0.436704 1 2 tcp 1040 ------- 0 0.0 3.0 77 419
r 0.43688 2 3 tcp 1040 ------- 0 0.0 3.0 69 403
r 0.437008 0 1 tcp 1040 ------- 0 0.0 3.0 101 457
r 0.437536 1 2 tcp 1040 ------- 0 0.0 3.0 78 420
r 0.437712 2 3 tcp 1040 ------- 0 0.0 3.0 70 404
r 0.43784 0 1 tcp 1040 ------- 0 0.0 3.0 102 458
r 0.438672 0 1 tcp 1040 ------- 0 0.0 3.0 103 460
r 0.43872 3 2 ack 40 ------- 0 3.0 0.0 63 478
r 0.439168 1 2 tcp 1040 ------- 0 0.0 3.0 79 423
r 0.439344 2 3 tcp 1040 ------- 0 0.0 3.0 71 407
r 0.439504 0 1 tcp 1040 ------- 0 0.0 3.0 104 461
r 0.440336 0 1 tcp 1040 ------- 0 0.0 3.0 105 463
r 0.440352 3 2 ack 40 ------- 0 3.0 0.0 64 482
r 0.4408 1 2 tcp 1040 ------- 0 0.0 3.0 80 424
r 0.440976 2 3 tcp 1040 ------- 0 0.0 3.0 72 408
r 0.441168 0 1 tcp 1040 ------- 0 0.0 3.0 106 464
r 0.441184 3 2 ack 40 ------- 0 3.0 0.0 65 485
r 0.441632 1 2 tcp 1040 ------- 0 0.0 3.0 81 427
r 0.441808 2 3 tcp 1040 ------- 0 0.0 3.0 73 411
r 0.442 0 1 tcp 1040 ------- 0 0.0 3.0 107 466
r 0.442816 3 2 ack 40 ------- 0 3.0 0.0 66 490
r 0.442832 0 1 tcp 1040 ------- 0 0.0 3.0 108 467
r 0.443264 1 2 tcp 1040 ------- 0 0.0 3.0 82 428
r 0.44344 2 3 tcp 1040 ------- 0 0.0 3.0 74 412
r 0.443664 0 1 tcp 1040 ------- 0 0.0 3.0 109 469
r 0.444448 3 2 ack 40 ------- 0 3.0 0.0 67 494
r 0.444496 0 1 tcp 1040 ------- 0 0.0 3.0 110 470
r 0.444896 1 2 tcp 1040 ------- 0 0.0 3.0 83 430
r 0.445072 2 3 tcp 1040 ------- 0 0.0 3.0 75 415
r 0.44528 3 2 ack 40 ------- 0 3.0 0.0 68 497
r 0.445328 0 1 tcp 1040 ------- 0 0.0 3.0 111 472
r 0.445728 1 2 tcp 1040 ------- 0 0.0 3.0 84 431
r 0.445904 2 3 tcp 1040 ------- 0 0.0 3.0 76 416
r 0.44616 0 1 tcp 1040 ------- 0 0.0 3.0 112 473
r 0.446912 3 2 ack 40 ------- 0 3.0 0.0 69 502
r 0.446992 0 1 tcp 1040 ------- 0 0.0 3.0 113 475
r 0.44736 1 2 tcp 1040 ------- 0 0.0 3.0 85 433
r 0.447536 2 3 tcp 1040 ------- 0 0.0 3.0 77 419
r 0.447744 3 2 ack 40 ------- 0 3.0 0.0 70 503
r 0.447824 0 1 tcp 1040 ------- 0 0.0 3.0 114 476
r 0.448192 1 2 tcp 1040 ------- 0 0.0 3.0 86 434
r 0.448368 2 3 tcp 1040 ------- 0 0.0 3.0 78 420
r 0.448656 0 1 tcp 1040 ------- 0 0.0 3.0 115 479
r 0.448752 2 1 ack 40 ------- 0 3.0 0.0 63 478
r 0.449376 3 2 ack 40 ------- 0 3.0 0.0 71 506
r 0.449488 0 1 tcp 1040 ------- 0 0.0 3.0 116 480
r 0.449824 1 2 tcp 1040 ------- 0 0.0 3.0 87 436
r 0.45 2 3 tcp 1040 ------- 0 0.0 3.0 79 423
r 0.45032 0 1 tcp 1040 ------- 0 0.0 3.0 117 483
r 0.450384 2 1 ack 40 ------- 0 3.0 0.0 64 482
r 0.451008 3 2 ack 40 ------- 0 3.0 0.0 72 508
r 0.451152 0 1 tcp 1040 ------- 0 0.0 3.0 118 484
r 0.451216 2 1 ack 40 ------- 0 3.0 0.0 65 485
r 0.451456 1 2 tcp 1040 ------- 0 0.0 3.0 88 437
r 0.451632 2 3 tcp 1040 ------- 0 0.0 3.0 80 424
r 0.45184 3 2 ack 40 ------- 0 3.0 0.0 73 509
r 0.451984 0 1 tcp 1040 ------- 0 0.0 3.0 119 487
r 0.452288 1 2 tcp 1040 ------- 0 0.0 3.0 89 439
r 0.452464 2 3 tcp 1040 ------- 0 0.0 3.0 81 427
r 0.452816 0 1 tcp 1040 ------- 0 0.0 3.0 120 488
r 0.452848 2 1 ack 40 ------- 0 3.0 0.0 66 490
r 0.453472 3 2 ack 40 ------- 0 3.0 0.0 74 512
r 0.453648 0 1 tcp 1040 ------- 0 0.0 3.0 121 491
r 0.45392 1 2 tcp 1040 ------- 0 0.0 3.0 90 440
r 0.454096 2 3 tcp 1040 ------- 0 0.0 3.0 82 428
r 0.45448 0 1 tcp 1040 ------- 0 0.0 3.0 122 492
r 0.45448 2 1 ack 40 ------- 0 3.0 0.0 67 494
r 0.455104 3 2 ack 40 ------- 0 3.0 0.0 75 514
r 0.455312 0 1 tcp 1040 ------- 0 0.0 3.0 123 495
r 0.455312 2 1 ack 40 ------- 0 3.0 0.0 68 497
r 0.455552 1 2 tcp 1040 ------- 0 0.0 3.0 91 442
r 0.455728 2 3 tcp 1040 ------- 0 0.0 3.0 83 430
r 0.455936 3 2 ack 40 ------- 0 3.0 0.0 76 515
r 0.456144 0 1 tcp 1040 ------- 0 0.0 3.0 124 496
r 0.456384 1 2 tcp 1040 ------- 0 0.0 3.0 92 443
r 0.45656 2 3 tcp 1040 ------- 0 0.0 3.0 84 431
r 0.456944 2 1 ack 40 ------- 0 3.0 0.0 69 502
r 0.456976 0 1 tcp 1040 ------- 0 0.0 3.0 125 499
r 0.457568 3 2 ack 40 ------- 0 3.0 0.0 77 518
r 0.457776 2 1 ack 40 ------- 0 3.0 0.0 70 503
r 0.457808 0 1 tcp 1040 ------- 0 0.0 3.0 126 500
r 0.458016 1 2 tcp 1040 ------- 0 0.0 3.0 93 445
r 0.458192 2 3 tcp 1040 ------- 0 0.0 3.0 85 433
r 0.4584 3 2 ack 40 ------- 0 3.0 0.0 78 519
r 0.458784 1 0 ack 40 ------- 0 3.0 0.0 63 478
r 0.458848 1 2 tcp 1040 ------- 0 0.0 3.0 94 446
r 0.459024 2 3 tcp 1040 ------- 0 0.0 3.0 86 434
r 0.459408 2 1 ack 40 ------- 0 3.0 0.0 71 506
r 0.460032 3 2 ack 40 ------- 0 3.0 0.0 79 521
r 0.460416 1 0 ack 40 ------- 0 3.0 0.0 64 482
r 0.46048 1 2 tcp 1040 ------- 0 0.0 3.0 95 448
r 0.460656 2 3 tcp 1040 ------- 0 0.0 3.0 87 436
r 0.46104 2 1 ack 40 ------- 0 3.0 0.0 72 508
r 0.461248 1 0 ack 40 ------- 0 3.0 0.0 65 485
r 0.461664 3 2 ack 40 ------- 0 3.0 0.0 80 524
r 0.461872 2 1 ack 40 ------- 0 3.0 0.0 73 509
r 0.462112 1 2 tcp 1040 ------- 0 0.0 3.0 96 449
r 0.462288 2 3 tcp 1040 ------- 0 0.0 3.0 88 437
r 0.462496 3 2 ack 40 ------- 0 3.0 0.0 81 525
r 0.46288 1 0 ack 40 ------- 0 3.0 0.0 66 490
r 0.462944 1 2 tcp 1040 ------- 0 0.0 3.0 97 451
r 0.46312 2 3 tcp 1040 ------- 0 0.0 3.0 89 439
r 0.463504 2 1 ack 40 ------- 0 3.0 0.0 74 512
r 0.464128 3 2 ack 40 ------- 0 3.0 0.0 82 528
r 0.464512 1 0 ack 40 ------- 0 3.0 0.0 67 494
r 0.464576 1 2 tcp 1040 ------- 0 0.0 3.0 98 452
r 0.464752 2 3 tcp 1040 ------- 0 0.0 3.0 90 440
r 0.465136 2 1 ack 40 ------- 0 3.0 0.0 75 514
r 0.465344 1 0 ack 40 ------- 0 3.0 0.0 68 497
r 0.46576 3 2 ack 40 ------- 0 3.0 0.0 83 530
r 0.465968 2 1 ack 40 ------- 0 3.0 0.0 76 515
r 0.466208 1 2 tcp 1040 ------- 0 0.0 3.0 99 454
r 0.466384 2 3 tcp 1040 ------- 0 0.0 3.0 91 442
r 0.466592 3 2 ack 40 ------- 0 3.0 0.0 84 531
r 0.466976 1 0 ack 40 ------- 0 3.0 0.0 69 502
r 0.46704 1 2 tcp 1040 ------- 0 0.0 3.0 100 455
r 0.467216 2 3 tcp 1040 ------- 0 0.0 3.0 92 443
r 0.4676 2 1 ack 40 ------- 0 3.0 0.0 77 518
r 0.467808 1 0 ack 40 ------- 0 3.0 0.0 70 503
r 0.468224 3 2 ack 40 ------- 0 3.0 0.0 85 534
r 0.468432 2 1 ack 40 ------- 0 3.0 0.0 78 519
r 0.468672 1 2 tcp 1040 ------- 0 0.0 3.0 101 457
r 0.468848 2 3 tcp 1040 ------- 0 0.0 3.0 93 445
r 0.469056 3 2 ack 40 ------- 0 3.0 0.0 86 537
r 0.46944 1 0 ack 40 ------- 0 3.0 0.0 71 506
r 0.469504 1 2 tcp 1040 ------- 0 0.0 3.0 102 458
r 0.469616 0 1 tcp 1040 ------- 0 0.0 3.0 127 535
r 0.46968 2 3 tcp 1040 ------- 0 0.0 3.0 94 446
r 0.470064 2 1 ack 40 ------- 0 3.0 0.0 79 521
r 0.470448 0 1 tcp 1040 ------- 0 0.0 3.0 128 536
r 0.470688 3 2 ack 40 ------- 0 3.0 0.0 87 541
r 0.471072 1 0 ack 40 ------- 0 3.0 0.0 72 508
r 0.471136 1 2 tcp 1040 ------- 0 0.0 3.0 103 460
r 0.47128 0 1 tcp 1040 ------- 0 0.0 3.0 129 539
r 0.471312 2 3 tcp 1040 ------- 0 0.0 3.0 95 448
r 0.471696 2 1 ack 40 ------- 0 3.0 0.0 80 524
r 0.471904 1 0 ack 40 ------- 0 3.0 0.0 73 509
r 0.472112 0 1 tcp 1040 ------- 0 0.0 3.0 130 540
r 0.47232 3 2 ack 40 ------- 0 3.0 0.0 88 546
r 0.472528 2 1 ack 40 ------- 0 3.0 0.0 81 525
r 0.472768 1 2 tcp 1040 ------- 0 0.0 3.0 104 461
r 0.472944 0 1 tcp 1040 ------- 0 0.0 3.0 131 543
r 0.472944 2 3 tcp 1040 ------- 0 0.0 3.0 96 449
r 0.473152 3 2 ack 40 ------- 0 3.0 0.0 89 549
r 0.473536 1 0 ack 40 ------- 0 3.0 0.0 74 512
r 0.4736 1 2 tcp 1040 ------- 0 0.0 3.0 105 463
r 0.473776 0 1 tcp 1040 ------- 0 0.0 3.0 132 544
r 0.473776 2 3 tcp 1040 ------- 0 0.0 3.0 97 451
r 0.47416 2 1 ack 40 ------- 0 3.0 0.0 82 528
r 0.474608 0 1 tcp 1040 ------- 0 0.0 3.0 133 547
r 0.474784 3 2 ack 40 ------- 0 3.0 0.0 90 554
r 0.475168 1 0 ack 40 ------- 0 3.0 0.0 75 514
r 0.475232 1 2 tcp 1040 ------- 0 0.0 3.0 106 464
r 0.475408 2 3 tcp 1040 ------- 0 0.0 3.0 98 452
r 0.47544 0 1 tcp 1040 ------- 0 0.0 3.0 134 548
r 0.475792 2 1 ack 40 ------- 0 3.0 0.0 83 530
r 0.476 1 0 ack 40 ------- 0 3.0 0.0 76 515
r 0.476064 1 2 tcp 1040 ------- 0 0.0 3.0 107 466
r 0.476272 0 1 tcp 1040 ------- 0 0.0 3.0 135 551
r 0.476416 3 2 ack 40 ------- 0 3.0 0.0 91 558
r 0.476624 2 1 ack 40 ------- 0 3.0 0.0 84 531
r 0.47704 2 3 tcp 1040 ------- 0 0.0 3.0 99 454
r 0.477104 0 1 tcp 1040 ------- 0 0.0 3.0 136 552
r 0.477248 3 2 ack 40 ------- 0 3.0 0.0 92 561
r 0.477632 1 0 ack 40 ------- 0 3.0 0.0 77 518
r 0.477696 1 2 tcp 1040 ------- 0 0.0 3.0 108 467
r 0.477872 2 3 tcp 1040 ------- 0 0.0 3.0 100 455
r 0.477936 0 1 tcp 1040 ------- 0 0.0 3.0 137 555
r 0.478256 2 1 ack 40 ------- 0 3.0 0.0 85 534
r 0.478464 1 0 ack 40 ------- 0 3.0 0.0 78 519
r 0.478768 0 1 tcp 1040 ------- 0 0.0 3.0 138 556
r 0.47888 3 2 ack 40 ------- 0 3.0 0.0 93 566
r 0.479088 2 1 ack 40 ------- 0 3.0 0.0 86 537
r 0.479328 1 2 tcp 1040 ------- 0 0.0 3.0 109 469
r 0.479504 2 3 tcp 1040 ------- 0 0.0 3.0 101 457
r 0.4796 0 1 tcp 1040 ------- 0 0.0 3.0 139 559
r 0.479712 3 2 ack 40 ------- 0 3.0 0.0 94 569
r 0.480096 1 0 ack 40 ------- 0 3.0 0.0 79 521
r 0.48016 1 2 tcp 1040 ------- 0 0.0 3.0 110 470
r 0.480336 2 3 tcp 1040 ------- 0 0.0 3.0 102 458
r 0.480432 0 1 tcp 1040 ------- 0 0.0 3.0 140 560
r 0.48072 2 1 ack 40 ------- 0 3.0 0.0 87 541
r 0.481264 0 1 tcp 1040 ------- 0 0.0 3.0 141 563
r 0.481344 3 2 ack 40 ------- 0 3.0 0.0 95 573
r 0.481728 1 0 ack 40 ------- 0 3.0 0.0 80 524
r 0.481792 1 2 tcp 1040 ------- 0 0.0 3.0 111 472
r 0.481968 2 3 tcp 1040 ------- 0 0.0 3.0 103 460
r 0.482096 0 1 tcp 1040 ------- 0 0.0 3.0 142 564
r 0.482352 2 1 ack 40 ------- 0 3.0 0.0 88 546
r 0.48256 1 0 ack 40 ------- 0 3.0 0.0 81 525