r 0.030032 0 1 tcp 40 ------- 0 0.0 3.0 0 0
r 0.040832 1 2 tcp 40 ------- 0 0.0 3.0 0 0
r 0.050864 2 3 tcp 40 ------- 0 0.0 3.0 0 0
r 0.060896 3 2 ack 40 ------- 0 3.0 0.0 0 12
r 0.070928 2 1 ack 40 ------- 0 3.0 0.0 0 12
r 0.08096 1 0 ack 40 ------- 0 3.0 0.0 0 12
r 0.091792 0 1 tcp 1040 ------- 0 0.0 3.0 1 28
r 0.092624 0 1 tcp 1040 ------- 0 0.0 3.0 2 29
r 0.102624 1 2 tcp 1040 ------- 0 0.0 3.0 1 28
r 0.104256 1 2 tcp 1040 ------- 0 0.0 3.0 2 29
r 0.113456 2 3 tcp 1040 ------- 0 0.0 3.0 1 28
r 0.115088 2 3 tcp 1040 ------- 0 0.0 3.0 2 29
r 0.123488 3 2 ack 40 ------- 0 3.0 0.0 1 46
r 0.12512 3 2 ack 40 ------- 0 3.0 0.0 2 48
r 0.13352 2 1 ack 40 ------- 0 3.0 0.0 1 46
r 0.135152 2 1 ack 40 ------- 0 3.0 0.0 2 48
r 0.143552 1 0 ack 40 ------- 0 3.0 0.0 1 46
r 0.145184 1 0 ack 40 ------- 0 3.0 0.0 2 48
r 0.154384 0 1 tcp 1040 ------- 0 0.0 3.0 3 63
r 0.155216 0 1 tcp 1040 ------- 0 0.0 3.0 4 64
r 0.156048 0 1 tcp 1040 ------- 0 0.0 3.0 5 66
r 0.15688 0 1 tcp 1040 ------- 0 0.0 3.0 6 67
r 0.165632 1 2 tcp 1040 ------- 0 0.0 3.0 3 63
r 0.166464 1 2 tcp 1040 ------- 0 0.0 3.0 4 64
r 0.168096 1 2 tcp 1040 ------- 0 0.0 3.0 5 66
r 0.168928 1 2 tcp 1040 ------- 0 0.0 3.0 6 67
r 0.176464 2 3 tcp 1040 ------- 0 0.0 3.0 3 63
r 0.177296 2 3 tcp 1040 ------- 0 0.0 3.0 4 64
r 0.178928 2 3 tcp 1040 ------- 0 0.0 3.0 5 66
r 0.17976 2 3 tcp 1040 ------- 0 0.0 3.0 6 67
r 0.186496 3 2 ack 40 ------- 0 3.0 0.0 3 84
r 0.187328 3 2 ack 40 ------- 0 3.0 0.0 4 85
r 0.18896 3 2 ack 40 ------- 0 3.0 0.0 5 87
r 0.189792 3 2 ack 40 ------- 0 3.0 0.0 6 88
r 0.196528 2 1 ack 40 ------- 0 3.0 0.0 3 84
r 0.19736 2 1 ack 40 ------- 0 3.0 0.0 4 85
r 0.198992 2 1 ack 40 ------- 0 3.0 0.0 5 87
r 0.199824 2 1 ack 40 ------- 0 3.0 0.0 6 88
r 0.20656 1 0 ack 40 ------- 0 3.0 0.0 3 84
r 0.207392 1 0 ack 40 ------- 0 3.0 0.0 4 85
r 0.209024 1 0 ack 40 ------- 0 3.0 0.0 5 87
r 0.209856 1 0 ack 40 ------- 0 3.0 0.0 6 88
r 0.217392 0 1 tcp 1040 ------- 0 0.0 3.0 7 103
r 0.218224 0 1 tcp 1040 ------- 0 0.0 3.0 8 104
r 0.219056 0 1 tcp 1040 ------- 0 0.0 3.0 9 105
r 0.219888 0 1 tcp 1040 ------- 0 0.0 3.0 10 106
r 0.22072 0 1 tcp 1040 ------- 0 0.0 3.0 11 108
r 0.221552 0 1 tcp 1040 ------- 0 0.0 3.0 12 109
r 0.222384 0 1 tcp 1040 ------- 0 0.0 3.0 13 110
r 0.223216 0 1 tcp 1040 ------- 0 0.0 3.0 14 111
r 0.228224 1 2 tcp 1040 ------- 0 0.0 3.0 7 103
r 0.229856 1 2 tcp 1040 ------- 0 0.0 3.0 8 104
r 0.230688 1 2 tcp 1040 ------- 0 0.0 3.0 9 105
r 0.23152 1 2 tcp 1040 ------- 0 0.0 3.0 10 106
r 0.233152 1 2 tcp 1040 ------- 0 0.0 3.0 11 108
r 0.233984 1 2 tcp 1040 ------- 0 0.0 3.0 12 109
r 0.235616 1 2 tcp 1040 ------- 0 0.0 3.0 13 110
r 0.236448 1 2 tcp 1040 ------- 0 0.0 3.0 14 111
r 0.239056 2 3 tcp 1040 ------- 0 0.0 3.0 7 103
r 0.240688 2 3 tcp 1040 ------- 0 0.0 3.0 8 104
r 0.24152 2 3 tcp 1040 ------- 0 0.0 3.0 9 105
r 0.242352 2 3 tcp 1040 ------- 0 0.0 3.0 10 106
r 0.243984 2 3 tcp 1040 ------- 0 0.0 3.0 11 108
r 0.244816 2 3 tcp 1040 ------- 0 0.0 3.0 12 109
r 0.246448 2 3 tcp 1040 ------- 0 0.0 3.0 13 110
r 0.24728 2 3 tcp 1040 ------- 0 0.0 3.0 14 111
r 0.249088 3 2 ack 40 ------- 0 3.0 0.0 7 127
r 0.25072 3 2 ack 40 ------- 0 3.0 0.0 8 129
r 0.251552 3 2 ack 40 ------- 0 3.0 0.0 9 130
r 0.252384 3 2 ack 40 ------- 0 3.0 0.0 10 132
r 0.254016 3 2 ack 40 ------- 0 3.0 0.0 11 133
r 0.254848 3 2 ack 40 ------- 0 3.0 0.0 12 135
r 0.25648 3 2 ack 40 ------- 0 3.0 0.0 13 137
r 0.257312 3 2 ack 40 ------- 0 3.0 0.0 14 138
r 0.25912 2 1 ack 40 ------- 0 3.0 0.0 7 127
r 0.260752 2 1 ack 40 ------- 0 3.0 0.0 8 129
r 0.261584 2 1 ack 40 ------- 0 3.0 0.0 9 130
r 0.262416 2 1 ack 40 ------- 0 3.0 0.0 10 132
r 0.264048 2 1 ack 40 ------- 0 3.0 0.0 11 133
r 0.26488 2 1 ack 40 ------- 0 3.0 0.0 12 135
r 0.266512 2 1 ack 40 ------- 0 3.0 0.0 13 137
r 0.267344 2 1 ack 40 ------- 0 3.0 0.0 14 138
r 0.269152 1 0 ack 40 ------- 0 3.0 0.0 7 127
r 0.270784 1 0 ack 40 ------- 0 3.0 0.0 8 129
r 0.271616 1 0 ack 40 ------- 0 3.0 0.0 9 130
r 0.272448 1 0 ack 40 ------- 0 3.0 0.0 10 132
r 0.27408 1 0 ack 40 ------- 0 3.0 0.0 11 133
r 0.274912 1 0 ack 40 ------- 0 3.0 0.0 12 135
r 0.276544 1 0 ack 40 ------- 0 3.0 0.0 13 137
r 0.277376 1 0 ack 40 ------- 0 3.0 0.0 14 138
r 0.279984 0 1 tcp 1040 ------- 0 0.0 3.0 15 150
r 0.280816 0 1 tcp 1040 ------- 0 0.0 3.0 16 151
r 0.281648 0 1 tcp 1040 ------- 0 0.0 3.0 17 153
r 0.28248 0 1 tcp 1040 ------- 0 0.0 3.0 18 154
r 0.283312 0 1 tcp 1040 ------- 0 0.0 3.0 19 155
r 0.284144 0 1 tcp 1040 ------- 0 0.0 3.0 20 156
r 0.284976 0 1 tcp 1040 ------- 0 0.0 3.0 21 158
r 0.285808 0 1 tcp 1040 ------- 0 0.0 3.0 22 159
r 0.28664 0 1 tcp 1040 ------- 0 0.0 3.0 23 161
r 0.287472 0 1 tcp 1040 ------- 0 0.0 3.0 24 162
r 0.288304 0 1 tcp 1040 ------- 0 0.0 3.0 25 163
r 0.289136 0 1 tcp 1040 ------- 0 0.0 3.0 26 164
r 0.289968 0 1 tcp 1040 ------- 0 0.0 3.0 27 166
r 0.2908 0 1 tcp 1040 ------- 0 0.0 3.0 28 167
r 0.290816 1 2 tcp 1040 ------- 0 0.0 3.0 15 150
r 0.291632 0 1 tcp 1040 ------- 0 0.0 3.0 29 168
r 0.292448 1 2 tcp 1040 ------- 0 0.0 3.0 16 151
r 0.292464 0 1 tcp 1040 ------- 0 0.0 3.0 30 169
r 0.29328 1 2 tcp 1040 ------- 0 0.0 3.0 17 153
r 0.294912 1 2 tcp 1040 ------- 0 0.0 3.0 18 154
r 0.295744 1 2 tcp 1040 ------- 0 0.0 3.0 19 155
r 0.297376 1 2 tcp 1040 ------- 0 0.0 3.0 20 156
r 0.298208 1 2 tcp 1040 ------- 0 0.0 3.0 21 158
r 0.29904 1 2 tcp 1040 ------- 0 0.0 3.0 22 159
r 0.300672 1 2 tcp 1040 ------- 0 0.0 3.0 23 161
r 0.301504 1 2 tcp 1040 ------- 0 0.0 3.0 24 162
r 0.301648 2 3 tcp 1040 ------- 0 0.0 3.0 15 150
r 0.303136 1 2 tcp 1040 ------- 0 0.0 3.0 25 163
r 0.30328 2 3 tcp 1040 ------- 0 0.0 3.0 16 151
r 0.303968 1 2 tcp 1040 ------- 0 0.0 3.0 26 164
r 0.304112 2 3 tcp 1040 ------- 0 0.0 3.0 17 153
r 0.3048 1 2 tcp 1040 ------- 0 0.0 3.0 27 166
r 0.305744 2 3 tcp 1040 ------- 0 0.0 3.0 18 154
r 0.306432 1 2 tcp 1040 ------- 0 0.0 3.0 28 167
r 0.306576 2 3 tcp 1040 ------- 0 0.0 3.0 19 155
r 0.307264 1 2 tcp 1040 ------- 0 0.0 3.0 29 168
r 0.308208 2 3 tcp 1040 ------- 0 0.0 3.0 20 156
r 0.308896 1 2 tcp 1040 ------- 0 0.0 3.0 30 169
r 0.30904 2 3 tcp 1040 ------- 0 0.0 3.0 21 158
r 0.309872 2 3 tcp 1040 ------- 0 0.0 3.0 22 159
r 0.311504 2 3 tcp 1040 ------- 0 0.0 3.0 23 161
r 0.31168 3 2 ack 40 ------- 0 3.0 0.0 15 182
r 0.312336 2 3 tcp 1040 ------- 0 0.0 3.0 24 162
r 0.313312 3 2 ack 40 ------- 0 3.0 0.0 16 184
r 0.313968 2 3 tcp 1040 ------- 0 0.0 3.0 25 163
r 0.314144 3 2 ack 40 ------- 0 3.0 0.0 17 186
r 0.3148 2 3 tcp 1040 ------- 0 0.0 3.0 26 164
r 0.315632 2 3 tcp 1040 ------- 0 0.0 3.0 27 166
r 0.315776 3 2 ack 40 ------- 0 3.0 0.0 18 187
r 0.316608 3 2 ack 40 ------- 0 3.0 0.0 19 189
r 0.317264 2 3 tcp 1040 ------- 0 0.0 3.0 28 167
r 0.318096 2 3 tcp 1040 ------- 0 0.0 3.0 29 168
r 0.31824 3 2 ack 40 ------- 0 3.0 0.0 20 191
r 0.319072 3 2 ack 40 ------- 0 3.0 0.0 21 192
r 0.319728 2 3 tcp 1040 ------- 0 0.0 3.0 30 169
r 0.319904 3 2 ack 40 ------- 0 3.0 0.0 22 193
r 0.321536 3 2 ack 40 ------- 0 3.0 0.0 23 195
r 0.321712 2 1 ack 40 ------- 0 3.0 0.0 15 182
r 0.322368 3 2 ack 40 ------- 0 3.0 0.0 24 197
r 0.323344 2 1 ack 40 ------- 0 3.0 0.0 16 184
r 0.324 3 2 ack 40 ------- 0 3.0 0.0 25 198
r 0.324176 2 1 ack 40 ------- 0 3.0 0.0 17 186
r 0.324832 3 2 ack 40 ------- 0 3.0 0.0 26 200
r 0.325664 3 2 ack 40 ------- 0 3.0 0.0 27 201
r 0.325808 2 1 ack 40 ------- 0 3.0 0.0 18 187
r 0.32664 2 1 ack 40 ------- 0 3.0 0.0 19 189
r 0.327296 3 2 ack 40 ------- 0 3.0 0.0 28 203
r 0.328128 3 2 ack 40 ------- 0 3.0 0.0 29 205
r 0.328272 2 1 ack 40 ------- 0 3.0 0.0 20 191
r 0.329104 2 1 ack 40 ------- 0 3.0 0.0 21 192
r 0.32976 3 2 ack 40 ------- 0 3.0 0.0 30 206
r 0.329936 2 1 ack 40 ------- 0 3.0 0.0 22 193
r 0.331568 2 1 ack 40 ------- 0 3.0 0.0 23 195
r 0.331744 1 0 ack 40 ------- 0 3.0 0.0 15 182
r 0.3324 2 1 ack 40 ------- 0 3.0 0.0 24 197
r 0.333376 1 0 ack 40 ------- 0 3.0 0.0 16 184
r 0.334032 2 1 ack 40 ------- 0 3.0 0.0 25 198
r 0.334208 1 0 ack 40 ------- 0 3.0 0.0 17 186
r 0.334864 2 1 ack 40 ------- 0 3.0 0.0 26 200
r 0.335696 2 1 ack 40 ------- 0 3.0 0.0 27 201
r 0.33584 1 0 ack 40 ------- 0 3.0 0.0 18 187
r 0.336672 1 0 ack 40 ------- 0 3.0 0.0 19 189
r 0.337328 2 1 ack 40 ------- 0 3.0 0.0 28 203
r 0.33816 2 1 ack 40 ------- 0 3.0 0.0 29 205
r 0.338304 1 0 ack 40 ------- 0 3.0 0.0 20 191
r 0.339136 1 0 ack 40 ------- 0 3.0 0.0 21 192
r 0.339792 2 1 ack 40 ------- 0 3.0 0.0 30 206
r 0.339968 1 0 ack 40 ------- 0 3.0 0.0 22 193
r 0.3416 1 0 ack 40 ------- 0 3.0 0.0 23 195
r 0.342432 1 0 ack 40 ------- 0 3.0 0.0 24 197
r 0.342576 0 1 tcp 1040 ------- 0 0.0 3.0 31 213
r 0.343408 0 1 tcp 1040 ------- 0 0.0 3.0 32 214
r 0.344064 1 0 ack 40 ------- 0 3.0 0.0 25 198
r 0.34424 0 1 tcp 1040 ------- 0 0.0 3.0 33 216
r 0.344896 1 0 ack 40 ------- 0 3.0 0.0 26 200
r 0.345072 0 1 tcp 1040 ------- 0 0.0 3.0 34 217
r 0.345728 1 0 ack 40 ------- 0 3.0 0.0 27 201
r 0.345904 0 1 tcp 1040 ------- 0 0.0 3.0 35 219
r 0.346736 0 1 tcp 1040 ------- 0 0.0 3.0 36 220
r 0.34736 1 0 ack 40 ------- 0 3.0 0.0 28 203
r 0.347568 0 1 tcp 1040 ------- 0 0.0 3.0 37 221
r 0.348192 1 0 ack 40 ------- 0 3.0 0.0 29 205
r 0.3484 0 1 tcp 1040 ------- 0 0.0 3.0 38 222
r 0.349232 0 1 tcp 1040 ------- 0 0.0 3.0 39 224
r 0.349824 1 0 ack 40 ------- 0 3.0 0.0 30 206
r 0.350064 0 1 tcp 1040 ------- 0 0.0 3.0 40 225
r 0.350896 0 1 tcp 1040 ------- 0 0.0 3.0 41 227
r 0.351728 0 1 tcp 1040 ------- 0 0.0 3.0 42 228
r 0.35256 0 1 tcp 1040 ------- 0 0.0 3.0 43 229
r 0.353392 0 1 tcp 1040 ------- 0 0.0 3.0 44 230
r 0.353632 1 2 tcp 1040 ------- 0 0.0 3.0 31 213
r 0.354224 0 1 tcp 1040 ------- 0 0.0 3.0 45 231
r 0.354464 1 2 tcp 1040 ------- 0 0.0 3.0 32 214
r 0.355056 0 1 tcp 1040 ------- 0 0.0 3.0 46 232
r 0.355888 0 1 tcp 1040 ------- 0 0.0 3.0 47 234
r 0.356096 1 2 tcp 1040 ------- 0 0.0 3.0 33 216
r 0.35672 0 1 tcp 1040 ------- 0 0.0 3.0 48 235
r 0.356928 1 2 tcp 1040 ------- 0 0.0 3.0 34 217
r 0.357552 0 1 tcp 1040 ------- 0 0.0 3.0 49 237
r 0.35776 1 2 tcp 1040 ------- 0 0.0 3.0 35 219
r 0.358384 0 1 tcp 1040 ------- 0 0.0 3.0 50 238
r 0.359216 0 1 tcp 1040 ------- 0 0.0 3.0 51 240
r 0.359392 1 2 tcp 1040 ------- 0 0.0 3.0 36 220
r 0.360048 0 1 tcp 1040 ------- 0 0.0 3.0 52 241
r 0.360224 1 2 tcp 1040 ------- 0 0.0 3.0 37 221
r 0.36088 0 1 tcp 1040 ------- 0 0.0 3.0 53 242
r 0.361712 0 1 tcp 1040 ------- 0 0.0 3.0 54 243
r 0.361856 1 2 tcp 1040 ------- 0 0.0 3.0 38 222
r 0.362544 0 1 tcp 1040 ------- 0 0.0 3.0 55 244
r 0.362688 1 2 tcp 1040 ------- 0 0.0 3.0 39 224
r 0.363376 0 1 tcp 1040 ------- 0 0.0 3.0 56 245
r 0.364208 0 1 tcp 1040 ------- 0 0.0 3.0 57 247
r 0.36432 1 2 tcp 1040 ------- 0 0.0 3.0 40 225
r 0.364464 2 3 tcp 1040 ------- 0 0.0 3.0 31 213
r 0.36504 0 1 tcp 1040 ------- 0 0.0 3.0 58 248
r 0.365152 1 2 tcp 1040 ------- 0 0.0 3.0 41 227
r 0.365296 2 3 tcp 1040 ------- 0 0.0 3.0 32 214
r 0.365872 0 1 tcp 1040 ------- 0 0.0 3.0 59 250
r 0.365984 1 2 tcp 1040 ------- 0 0.0 3.0 42 228
r 0.366704 0 1 tcp 1040 ------- 0 0.0 3.0 60 251
r 0.366928 2 3 tcp 1040 ------- 0 0.0 3.0 33 216
r 0.367536 0 1 tcp 1040 ------- 0 0.0 3.0 61 252
r 0.367616 1 2 tcp 1040 ------- 0 0.0 3.0 43 229
r 0.36776 2 3 tcp 1040 ------- 0 0.0 3.0 34 217
r 0.368368 0 1 tcp 1040 ------- 0 0.0 3.0 62 253
r 0.368448 1 2 tcp 1040 ------- 0 0.0 3.0 44 230
r 0.368592 2 3 tcp 1040 ------- 0 0.0 3.0 35 219
r 0.37008 1 2 tcp 1040 ------- 0 0.0 3.0 45 231
r 0.370224 2 3 tcp 1040 ------- 0 0.0 3.0 36 220
r 0.370912 1 2 tcp 1040 ------- 0 0.0 3.0 46 232
r 0.371056 2 3 tcp 1040 ------- 0 0.0 3.0 37 221
r 0.371744 1 2 tcp 1040 ------- 0 0.0 3.0 47 234
r 0.372688 2 3 tcp 1040 ------- 0 0.0 3.0 38 222
r 0.373376 1 2 tcp 1040 ------- 0 0.0 3.0 48 235
r 0.37352 2 3 tcp 1040 ------- 0 0.0 3.0 39 224
r 0.374208 1 2 tcp 1040 ------- 0 0.0 3.0 49 237
r 0.374496 3 2 ack 40 ------- 0 3.0 0.0 31 262
r 0.375152 2 3 tcp 1040 ------- 0 0.0 3.0 40 225
r 0.375328 3 2 ack 40 ------- 0 3.0 0.0 32 263
r 0.37584 1 2 tcp 1040 ------- 0 0.0 3.0 50 238
r 0.375984 2 3 tcp 1040 ------- 0 0.0 3.0 41 227
r 0.376672 1 2 tcp 1040 ------- 0 0.0 3.0 51 240
r 0.376816 2 3 tcp 1040 ------- 0 0.0 3.0 42 228
r 0.37696 3 2 ack 40 ------- 0 3.0 0.0 33 265
r 0.377792 3 2 ack 40 ------- 0 3.0 0.0 34 266
r 0.378304 1 2 tcp 1040 ------- 0 0.0 3.0 52 241
r 0.378448 2 3 tcp 1040 ------- 0 0.0 3.0 43 229
r 0.378624 3 2 ack 40 ------- 0 3.0 0.0 35 268
r 0.379136 1 2 tcp 1040 ------- 0 0.0 3.0 53 242
r 0.37928 2 3 tcp 1040 ------- 0 0.0 3.0 44 230
r 0.379968 1 2 tcp 1040 ------- 0 0.0 3.0 54 243
r 0.380256 3 2 ack 40 ------- 0 3.0 0.0 36 270
r 0.380912 2 3 tcp 1040 ------- 0 0.0 3.0 45 231
r 0.381088 3 2 ack 40 ------- 0 3.0 0.0 37 271
r 0.3816 1 2 tcp 1040 ------- 0 0.0 3.0 55 244
r 0.381744 2 3 tcp 1040 ------- 0 0.0 3.0 46 232
r 0.382432 1 2 tcp 1040 ------- 0 0.0 3.0 56 245
r 0.382576 2 3 tcp 1040 ------- 0 0.0 3.0 47 234
r 0.38272 3 2 ack 40 ------- 0 3.0 0.0 38 273
r 0.383552 3 2 ack 40 ------- 0 3.0 0.0 39 274
r 0.384064 1 2 tcp 1040 ------- 0 0.0 3.0 57 247
r 0.384208 2 3 tcp 1040 ------- 0 0.0 3.0 48 235
r 0.384528 2 1 ack 40 ------- 0 3.0 0.0 31 262
r 0.384896 1 2 tcp 1040 ------- 0 0.0 3.0 58 248
r 0.38504 2 3 tcp 1040 ------- 0 0.0 3.0 49 237
r 0.385184 3 2 ack 40 ------- 0 3.0 0.0 40 276
r 0.38536 2 1 ack 40 ------- 0 3.0 0.0 32 263
r 0.385728 1 2 tcp 1040 ------- 0 0.0 3.0 59 250
r 0.386016 3 2 ack 40 ------- 0 3.0 0.0 41 277
r 0.386672 2 3 tcp 1040 ------- 0 0.0 3.0 50 238
r 0.386848 3 2 ack 40 ------- 0 3.0 0.0 42 279
r 0.386992 2 1 ack 40 ------- 0 3.0 0.0 33 265
r 0.38736 1 2 tcp 1040 ------- 0 0.0 3.0 60 251
r 0.387504 2 3 tcp 1040 ------- 0 0.0 3.0 51 240
r 0.387824 2 1 ack 40 ------- 0 3.0 0.0 34 266
r 0.388192 1 2 tcp 1040 ------- 0 0.0 3.0 61 252
r 0.38848 3 2 ack 40 ------- 0 3.0 0.0 43 281
r 0.388656 2 1 ack 40 ------- 0 3.0 0.0 35 268
r 0.389136 2 3 tcp 1040 ------- 0 0.0 3.0 52 241
r 0.389312 3 2 ack 40 ------- 0 3.0 0.0 44 282
r 0.389824 1 2 tcp 1040 ------- 0 0.0 3.0 62 253
r 0.389968 2 3 tcp 1040 ------- 0 0.0 3.0 53 242
r 0.390288 2 1 ack 40 ------- 0 3.0 0.0 36 270
r 0.3908 2 3 tcp 1040 ------- 0 0.0 3.0 54 243
r 0.390944 3 2 ack 40 ------- 0 3.0 0.0 45 284
r 0.39112 2 1 ack 40 ------- 0 3.0 0.0 37 271
r 0.391776 3 2 ack 40 ------- 0 3.0 0.0 46 285
r 0.392432 2 3 tcp 1040 ------- 0 0.0 3.0 55 244
r 0.392608 3 2 ack 40 ------- 0 3.0 0.0 47 287
r 0.392752 2 1 ack 40 ------- 0 3.0 0.0 38 273
r 0.393264 2 3 tcp 1040 ------- 0 0.0 3.0 56 245
r 0.393584 2 1 ack 40 ------- 0 3.0 0.0 39 274
r 0.39424 3 2 ack 40 ------- 0 3.0 0.0 48 289
r 0.39456 1 0 ack 40 ------- 0 3.0 0.0 31 262
r 0.394896 2 3 tcp 1040 ------- 0 0.0 3.0 57 247
r 0.395072 3 2 ack 40 ------- 0 3.0 0.0 49 290
r 0.395216 2 1 ack 40 ------- 0 3.0 0.0 40 276
r 0.395392 1 0 ack 40 ------- 0 3.0 0.0 32 263
r 0.395728 2 3 tcp 1040 ------- 0 0.0 3.0 58 248
r 0.396048 2 1 ack 40 ------- 0 3.0 0.0 41 277
r 0.39656 2 3 tcp 1040 ------- 0 0.0 3.0 59 250
r 0.396704 3 2 ack 40 ------- 0 3.0 0.0 50 292
r 0.39688 2 1 ack 40 ------- 0 3.0 0.0 42 279
r 0.397024 1 0 ack 40 ------- 0 3.0 0.0 33 265
r 0.397536 3 2 ack 40 ------- 0 3.0 0.0 51 293
r 0.397856 1 0 ack 40 ------- 0 3.0 0.0 34 266
r 0.398192 2 3 tcp 1040 ------- 0 0.0 3.0 60 251
r 0.398512 2 1 ack 40 ------- 0 3.0 0.0 43 281
r 0.398688 1 0 ack 40 ------- 0 3.0 0.0 35 268
r 0.399024 2 3 tcp 1040 ------- 0 0.0 3.0 61 252
r 0.399168 3 2 ack 40 ------- 0 3.0 0.0 52 295
r 0.399344 2 1 ack 40 ------- 0 3.0 0.0 44 282
r 0.4 3 2 ack 40 ------- 0 3.0 0.0 53 296
r 0.40032 1 0 ack 40 ------- 0 3.0 0.0 36 270
r 0.400656 2 3 tcp 1040 ------- 0 0.0 3.0 62 253
r 0.400832 3 2 ack 40 ------- 0 3.0 0.0 54 298
r 0.400976 2 1 ack 40 ------- 0 3.0 0.0 45 284
r 0.401152 1 0 ack 40 ------- 0 3.0 0.0 37 271
r 0.401808 2 1 ack 40 ------- 0 3.0 0.0 46 285
r 0.402464 3 2 ack 40 ------- 0 3.0 0.0 55 300
r 0.40264 2 1 ack 40 ------- 0 3.0 0.0 47 287
r 0.402784 1 0 ack 40 ------- 0 3.0 0.0 38 273
r 0.403296 3 2 ack 40 ------- 0 3.0 0.0 56 301
r 0.403616 1 0 ack 40 ------- 0 3.0 0.0 39 274
r 0.404272 2 1 ack 40 ------- 0 3.0 0.0 48 289
r 0.404928 3 2 ack 40 ------- 0 3.0 0.0 57 305
r 0.405104 2 1 ack 40 ------- 0 3.0 0.0 49 290
r 0.405248 1 0 ack 40 ------- 0 3.0 0.0 40 276
r 0.405392 0 1 tcp 1040 ------- 0 0.0 3.0 63 303
r 0.40576 3 2 ack 40 ------- 0 3.0 0.0 58 308
r 0.40608 1 0 ack 40 ------- 0 3.0 0.0 41 277
r 0.406224 0 1 tcp 1040 ------- 0 0.0 3.0 64 304
r 0.406592 3 2 ack 40 ------- 0 3.0 0.0 59 310
r 0.406736 2 1 ack 40 ------- 0 3.0 0.0 50 292
r 0.406912 1 0 ack 40 ------- 0 3.0 0.0 42 279
r 0.407056 0 1 tcp 1040 ------- 0 0.0 3.0 65 306
r 0.407568 2 1 ack 40 ------- 0 3.0 0.0 51 293
r 0.407888 0 1 tcp 1040 ------- 0 0.0 3.0 66 307
r 0.408224 3 2 ack 40 ------- 0 3.0 0.0 60 316
r 0.408544 1 0 ack 40 ------- 0 3.0 0.0 43 281
r 0.40872 0 1 tcp 1040 ------- 0 0.0 3.0 67 311
r 0.409056 3 2 ack 40 ------- 0 3.0 0.0 61 319
r 0.4092 2 1 ack 40 ------- 0 3.0 0.0 52 295
r 0.409376 1 0 ack 40 ------- 0 3.0 0.0 44 282
r 0.409552 0 1 tcp 1040 ------- 0 0.0 3.0 68 312
r 0.410032 2 1 ack 40 ------- 0 3.0 0.0 53 296
r 0.410384 0 1 tcp 1040 ------- 0 0.0 3.0 69 313
r 0.410688 3 2 ack 40 ------- 0 3.0 0.0 62 323
r 0.410864 2 1 ack 40 ------- 0 3.0 0.0 54 298
r 0.411008 1 0 ack 40 ------- 0 3.0 0.0 45 284
r 0.411216 0 1 tcp 1040 ------- 0 0.0 3.0 70 314
r 0.41184 1 0 ack 40 ------- 0 3.0 0.0 46 285
r 0.412048 0 1 tcp 1040 ------- 0 0.0 3.0 71 317
r 0.412496 2 1 ack 40 ------- 0 3.0 0.0 55 300
r 0.412672 1 0 ack 40 ------- 0 3.0 0.0 47 287
r 0.41288 0 1 tcp 1040 ------- 0 0.0 3.0 72 318
r 0.413328 2 1 ack 40 ------- 0 3.0 0.0 56 301
r 0.413712 0 1 tcp 1040 ------- 0 0.0 3.0 73 321
r 0.414304 1 0 ack 40 ------- 0 3.0 0.0 48 289
r 0.414544 0 1 tcp 1040 ------- 0 0.0 3.0 74 322
r 0.41496 2 1 ack 40 ------- 0 3.0 0.0 57 305
r 0.415136 1 0 ack 40 ------- 0 3.0 0.0 49 290
r 0.415376 0 1 tcp 1040 ------- 0 0.0 3.0 75 324
r 0.415792 2 1 ack 40 ------- 0 3.0 0.0 58 308
r 0.416208 0 1 tcp 1040 ------- 0 0.0 3.0 76 325
r 0.416224 1 2 tcp 1040 ------- 0 0.0 3.0 63 303
r 0.416624 2 1 ack 40 ------- 0 3.0 0.0 59 310
r 0.416768 1 0 ack 40 ------- 0 3.0 0.0 50 292
r 0.41704 0 1 tcp 1040 ------- 0 0.0 3.0 77 327
r 0.4176 1 0 ack 40 ------- 0 3.0 0.0 51 293
r 0.417856 1 2 tcp 1040 ------- 0 0.0 3.0 64 304
r 0.417872 0 1 tcp 1040 ------- 0 0.0 3.0 78 328
r 0.418256 2 1 ack 40 ------- 0 3.0 0.0 60 316
r 0.418688 1 2 tcp 1040 ------- 0 0.0 3.0 65 306
r 0.418704 0 1 tcp 1040 ------- 0 0.0 3.0 79 329
r 0.419088 2 1 ack 40 ------- 0 3.0 0.0 61 319
r 0.419232 1 0 ack 40 ------- 0 3.0 0.0 52 295
r 0.41952 1 2 tcp 1040 ------- 0 0.0 3.0 66 307
r 0.419536 0 1 tcp 1040 ------- 0 0.0 3.0 80 330
r 0.420064 1 0 ack 40 ------- 0 3.0 0.0 53 296
r 0.420368 0 1 tcp 1040 ------- 0 0.0 3.0 81 332
r 0.42072 2 1 ack 40 ------- 0 3.0 0.0 62 323
r 0.420896 1 0 ack 40 ------- 0 3.0 0.0 54 298
r 0.421152 1 2 tcp 1040 ------- 0 0.0 3.0 67 311
r 0.4212 0 1 tcp 1040 ------- 0 0.0 3.0 82 333
r 0.421984 1 2 tcp 1040 ------- 0 0.0 3.0 68 312
r 0.422032 0 1 tcp 1040 ------- 0 0.0 3.0 83 335
r 0.422528 1 0 ack 40 ------- 0 3.0 0.0 55 300
r 0.422864 0 1 tcp 1040 ------- 0 0.0 3.0 84 336
r 0.42336 1 0 ack 40 ------- 0 3.0 0.0 56 301
r 0.423616 1 2 tcp 1040 ------- 0 0.0 3.0 69 313
r 0.423696 0 1 tcp 1040 ------- 0 0.0 3.0 85 337
r 0.424448 1 2 tcp 1040 ------- 0 0.0 3.0 70 314
r 0.424528 0 1 tcp 1040 ------- 0 0.0 3.0 86 338
r 0.424992 1 0 ack 40 ------- 0 3.0 0.0 57 305
r 0.42536 0 1 tcp 1040 ------- 0 0.0 3.0 87 340
r 0.425824 1 0 ack 40 ------- 0 3.0 0.0 58 308
r 0.42608 1 2 tcp 1040 ------- 0 0.0 3.0 71 317
r 0.426192 0 1 tcp 1040 ------- 0 0.0 3.0 88 341
r 0.426656 1 0 ack 40 ------- 0 3.0 0.0 59 310
r 0.426912 1 2 tcp 1040 ------- 0 0.0 3.0 72 318
r 0.427024 0 1 tcp 1040 ------- 0 0.0 3.0 89 342
r 0.427056 2 3 tcp 1040 ------- 0 0.0 3.0 63 303
r 0.427744 1 2 tcp 1040 ------- 0 0.0 3.0 73 321
r 0.427856 0 1 tcp 1040 ------- 0 0.0 3.0 90 343
r 0.428288 1 0 ack 40 ------- 0 3.0 0.0 60 316
r 0.428688 0 1 tcp 1040 ------- 0 0.0 3.0 91 345
r 0.428688 2 3 tcp 1040 ------- 0 0.0 3.0 64 304
r 0.42912 1 0 ack 40 ------- 0 3.0 0.0 61 319
r 0.429376 1 2 tcp 1040 ------- 0 0.0 3.0 74 322
r 0.42952 0 1 tcp 1040 ------- 0 0.0 3.0 92 346
r 0.42952 2 3 tcp 1040 ------- 0 0.0 3.0 65 306
r 0.430208 1 2 tcp 1040 ------- 0 0.0 3.0 75 324
r 0.430352 0 1 tcp 1040 ------- 0 0.0 3.0 93 347
r 0.430352 2 3 tcp 1040 ------- 0 0.0 3.0 66 307
r 0.430752 1 0 ack 40 ------- 0 3.0 0.0 62 323
r 0.431184 0 1 tcp 1040 ------- 0 0.0 3.0 94 348
r 0.43184 1 2 tcp 1040 ------- 0 0.0 3.0 76 325
r 0.431984 2 3 tcp 1040 ------- 0 0.0 3.0 67 311
r 0.432016 0 1 tcp 1040 ------- 0 0.0 3.0 95 350
r 0.432672 1 2 tcp 1040 ------- 0 0.0 3.0 77 327
r 0.432816 2 3 tcp 1040 ------- 0 0.0 3.0 68 312
r 0.432848 0 1 tcp 1040 ------- 0 0.0 3.0 96 351
r 0.433504 1 2 tcp 1040 ------- 0 0.0 3.0 78 328
r 0.43368 0 1 tcp 1040 ------- 0 0.0 3.0 97 353
r 0.434448 2 3 tcp 1040 ------- 0 0.0 3.0 69 313
r 0.434512 0 1 tcp 1040 ------- 0 0.0 3.0 98 354
r 0.435136 1 2 tcp 1040 ------- 0 0.0 3.0 79 329
r 0.43528 2 3 tcp 1040 ------- 0 0.0 3.0 70 314
r 0.435344 0 1 tcp 1040 ------- 0 0.0 3.0 99 355
r 0.435968 1 2 tcp 1040 ------- 0 0.0 3.0 80 330
r 0.436176 0 1 tcp 1040 ------- 0 0.0 3.0 100 356
r 0.436912 2 3 tcp 1040 ------- 0 0.0 3.0 71 317
r 0.437008 0 1 tcp 1040 ------- 0 0.0 3.0 101 358
r 0.437088 3 2 ack 40 ------- 0 3.0 0.0 63 383
r 0.4376 1 2 tcp 1040 ------- 0 0.0 3.0 81 332
r 0.437744 2 3 tcp 1040 ------- 0 0.0 3.0 72 318
r 0.43784 0 1 tcp 1040 ------- 0 0.0 3.0 102 359
r 0.438432 1 2 tcp 1040 ------- 0 0.0 3.0 82 333
r 0.438576 2 3 tcp 1040 ------- 0 0.0 3.0 73 321
r 0.438672 0 1 tcp 1040 ------- 0 0.0 3.0 103 360
r 0.43872 3 2 ack 40 ------- 0 3.0 0.0 64 387
r 0.439504 0 1 tcp 1040 ------- 0 0.0 3.0 104 361
r 0.439552 3 2 ack 40 ------- 0 3.0 0.0 65 390
r 0.440064 1 2 tcp 1040 ------- 0 0.0 3.0 83 335
r 0.440208 2 3 tcp 1040 ------- 0 0.0 3.0 74 322
r 0.440336 0 1 tcp 1040 ------- 0 0.0 3.0 105 363
r 0.440384 3 2 ack 40 ------- 0 3.0 0.0 66 392
r 0.440896 1 2 tcp 1040 ------- 0 0.0 3.0 84 336
r 0.44104 2 3 tcp 1040 ------- 0 0.0 3.0 75 324
r 0.441168 0 1 tcp 1040 ------- 0 0.0 3.0 106 364
r 0.441728 1 2 tcp 1040 ------- 0 0.0 3.0 85 337
r 0.442 0 1 tcp 1040 ------- 0 0.0 3.0 107 366
r 0.442016 3 2 ack 40 ------- 0 3.0 0.0 67 395
r 0.442672 2 3 tcp 1040 ------- 0 0.0 3.0 76 325
r 0.442832 0 1 tcp 1040 ------- 0 0.0 3.0 108 367
r 0.442848 3 2 ack 40 ------- 0 3.0 0.0 68 397
r 0.44336 1 2 tcp 1040 ------- 0 0.0 3.0 86 338
r 0.443504 2 3 tcp 1040 ------- 0 0.0 3.0 77 327
r 0.443664 0 1 tcp 1040 ------- 0 0.0 3.0 109 368
r 0.444192 1 2 tcp 1040 ------- 0 0.0 3.0 87 340
r 0.444336 2 3 tcp 1040 ------- 0 0.0 3.0 78 328
r 0.44448 3 2 ack 40 ------- 0 3.0 0.0 69 399
r 0.444496 0 1 tcp 1040 ------- 0 0.0 3.0 110 369
r 0.445312 3 2 ack 40 ------- 0 3.0 0.0 70 400
r 0.445328 0 1 tcp 1040 ------- 0 0.0 3.0 111 371
r 0.445824 1 2 tcp 1040 ------- 0 0.0 3.0 88 341
r 0.445968 2 3 tcp 1040 ------- 0 0.0 3.0 79 329
r 0.44616 0 1 tcp 1040 ------- 0 0.0 3.0 112 372
r 0.446656 1 2 tcp 1040 ------- 0 0.0 3.0 89 342
r 0.4468 2 3 tcp 1040 ------- 0 0.0 3.0 80 330
r 0.446944 3 2 ack 40 ------- 0 3.0 0.0 71 402
r 0.446992 0 1 tcp 1040 ------- 0 0.0 3.0 113 373
r 0.44712 2 1 ack 40 ------- 0 3.0 0.0 63 383
r 0.447488 1 2 tcp 1040 ------- 0 0.0 3.0 90 343
r 0.447776 3 2 ack 40 ------- 0 3.0 0.0 72 403
r 0.447824 0 1 tcp 1040 ------- 0 0.0 3.0 114 374
r 0.448432 2 3 tcp 1040 ------- 0 0.0 3.0 81 332
r 0.448608 3 2 ack 40 ------- 0 3.0 0.0 73 405
r 0.448656 0 1 tcp 1040 ------- 0 0.0 3.0 115 376
r 0.448752 2 1 ack 40 ------- 0 3.0 0.0 64 387
r 0.44912 1 2 tcp 1040 ------- 0 0.0 3.0 91 345
r 0.449264 2 3 tcp 1040 ------- 0 0.0 3.0 82 333
r 0.449488 0 1 tcp 1040 ------- 0 0.0 3.0 116 377
r 0.449584 2 1 ack 40 ------- 0 3.0 0.0 65 390
r 0.449952 1 2 tcp 1040 ------- 0 0.0 3.0 92 346
r 0.45024 3 2 ack 40 ------- 0 3.0 0.0 74 407
r 0.45032 0 1 tcp 1040 ------- 0 0.0 3.0 117 378
r 0.450416 2 1 ack 40 ------- 0 3.0 0.0 66 392
r 0.450896 2 3 tcp 1040 ------- 0 0.0 3.0 83 335
r 0.451072 3 2 ack 40 ------- 0 3.0 0.0 75 408
r 0.451152 0 1 tcp 1040 ------- 0 0.0 3.0 118 379
r 0.451584 1 2 tcp 1040 ------- 0 0.0 3.0 93 347
r 0.451728 2 3 tcp 1040 ------- 0 0.0 3.0 84 336
r 0.451984 0 1 tcp 1040 ------- 0 0.0 3.0 119 381
r 0.452048 2 1 ack 40 ------- 0 3.0 0.0 67 395
r 0.452416 1 2 tcp 1040 ------- 0 0.0 3.0 94 348
r 0.45256 2 3 tcp 1040 ------- 0 0.0 3.0 85 337
r 0.452704 3 2 ack 40 ------- 0 3.0 0.0 76 410
r 0.452816 0 1 tcp 1040 ------- 0 0.0 3.0 120 382
r 0.45288 2 1 ack 40 ------- 0 3.0 0.0 68 397
r 0.453536 3 2 ack 40 ------- 0 3.0 0.0 77 411
r 0.453648 0 1 tcp 1040 ------- 0 0.0 3.0 121 385
r 0.454048 1 2 tcp 1040 ------- 0 0.0 3.0 95 350
r 0.454192 2 3 tcp 1040 ------- 0 0.0 3.0 86 338
r 0.454368 3 2 ack 40 ------- 0 3.0 0.0 78 413
r 0.45448 0 1 tcp 1040 ------- 0 0.0 3.0 122 386
r 0.454512 2 1 ack 40 ------- 0 3.0 0.0 69 399
r 0.45488 1 2 tcp 1040 ------- 0 0.0 3.0 96 351
r 0.455024 2 3 tcp 1040 ------- 0 0.0 3.0 87 340
r 0.455312 0 1 tcp 1040 ------- 0 0.0 3.0 123 388
r 0.455344 2 1 ack 40 ------- 0 3.0 0.0 70 400
r 0.455712 1 2 tcp 1040 ------- 0 0.0 3.0 97 353
r 0.456 3 2 ack 40 ------- 0 3.0 0.0 79 414
r 0.456144 0 1 tcp 1040 ------- 0 0.0 3.0 124 389
r 0.456656 2 3 tcp 1040 ------- 0 0.0 3.0 88 341
r 0.456832 3 2 ack 40 ------- 0 3.0 0.0 80 416
r 0.456976 0 1 tcp 1040 ------- 0 0.0 3.0 125 393
r 0.456976 2 1 ack 40 ------- 0 3.0 0.0 71 402
r 0.457152 1 0 ack 40 ------- 0 3.0 0.0 63 383
r 0.457344 1 2 tcp 1040 ------- 0 0.0 3.0 98 354
r 0.457488 2 3 tcp 1040 ------- 0 0.0 3.0 89 342
r 0.457808 0 1 tcp 1040 ------- 0 0.0 3.0 126 394
r 0.457808 2 1 ack 40 ------- 0 3.0 0.0 72 403
r 0.458176 1 2 tcp 1040 ------- 0 0.0 3.0 99 355
r 0.45832 2 3 tcp 1040 ------- 0 0.0 3.0 90 343
r 0.458464 3 2 ack 40 ------- 0 3.0 0.0 81 418
r 0.45864 2 1 ack 40 ------- 0 3.0 0.0 73 405
r 0.458784 1 0 ack 40 ------- 0 3.0 0.0 64 387
r 0.459296 3 2 ack 40 ------- 0 3.0 0.0 82 419
r 0.459616 1 0 ack 40 ------- 0 3.0 0.0 65 390
r 0.459808 1 2 tcp 1040 ------- 0 0.0 3.0 100 356
r 0.459952 2 3 tcp 1040 ------- 0 0.0 3.0 91 345
r 0.460272 2 1 ack 40 ------- 0 3.0 0.0 74 407
r 0.460448 1 0 ack 40 ------- 0 3.0 0.0 66 392
r 0.46064 1 2 tcp 1040 ------- 0 0.0 3.0 101 358
r 0.460784 2 3 tcp 1040 ------- 0 0.0 3.0 92 346
r 0.460928 3 2 ack 40 ------- 0 3.0 0.0 83 421
r 0.461104 2 1 ack 40 ------- 0 3.0 0.0 75 408
r 0.461472 1 2 tcp 1040 ------- 0 0.0 3.0 102 359
r 0.46176 3 2 ack 40 ------- 0 3.0 0.0 84 422
r 0.46208 1 0 ack 40 ------- 0 3.0 0.0 67 395
r 0.462416 2 3 tcp 1040 ------- 0 0.0 3.0 93 347
r 0.462592 3 2 ack 40 ------- 0 3.0 0.0 85 424
r 0.462736 2 1 ack 40 ------- 0 3.0 0.0 76 410
r 0.462912 1 0 ack 40 ------- 0 3.0 0.0 68 397
r 0.463104 1 2 tcp 1040 ------- 0 0.0 3.0 103 360
r 0.463248 2 3 tcp 1040 ------- 0 0.0 3.0 94 348
r 0.463568 2 1 ack 40 ------- 0 3.0 0.0 77 411
r 0.463936 1 2 tcp 1040 ------- 0 0.0 3.0 104 361
r 0.464224 3 2 ack 40 ------- 0 3.0 0.0 86 426
r 0.4644 2 1 ack 40 ------- 0 3.0 0.0 78 413
r 0.464544 1 0 ack 40 ------- 0 3.0 0.0 69 399
r 0.46488 2 3 tcp 1040 ------- 0 0.0 3.0 95 350
r 0.465056 3 2 ack 40 ------- 0 3.0 0.0 87 427
r 0.465376 1 0 ack 40 ------- 0 3.0 0.0 70 400
r 0.465568 1 2 tcp 1040 ------- 0 0.0 3.0 105 363
r 0.465712 2 3 tcp 1040 ------- 0 0.0 3.0 96 351
r 0.466032 2 1 ack 40 ------- 0 3.0 0.0 79 414
r 0.4664 1 2 tcp 1040 ------- 0 0.0 3.0 106 364
r 0.466544 2 3 tcp 1040 ------- 0 0.0 3.0 97 353
r 0.466688 3 2 ack 40 ------- 0 3.0 0.0 88 429
r 0.466864 2 1 ack 40 ------- 0 3.0 0.0 80 416
r 0.467008 1 0 ack 40 ------- 0 3.0 0.0 71 402
r 0.467232 1 2 tcp 1040 ------- 0 0.0 3.0 107 366
r 0.46752 3 2 ack 40 ------- 0 3.0 0.0 89 432
r 0.46784 1 0 ack 40 ------- 0 3.0 0.0 72 403
r 0.467984 0 1 tcp 1040 ------- 0 0.0 3.0 127 430
r 0.468176 2 3 tcp 1040 ------- 0 0.0 3.0 98 354
r 0.468352 3 2 ack 40 ------- 0 3.0 0.0 90 434
r 0.468496 2 1 ack 40 ------- 0 3.0 0.0 81 418
r 0.468672 1 0 ack 40 ------- 0 3.0 0.0 73 405
r 0.468816 0 1 tcp 1040 ------- 0 0.0 3.0 128 431
r 0.468864 1 2 tcp 1040 ------- 0 0.0 3.0 108 367
r 0.469008 2 3 tcp 1040 ------- 0 0.0 3.0 99 355
r 0.469328 2 1 ack 40 ------- 0 3.0 0.0 82 419
r 0.469648 0 1 tcp 1040 ------- 0 0.0 3.0 129 435
r 0.469696 1 2 tcp 1040 ------- 0 0.0 3.0 109 368
r 0.469984 3 2 ack 40 ------- 0 3.0 0.0 91 439
r 0.470304 1 0 ack 40 ------- 0 3.0 0.0 74 407
r 0.47048 0 1 tcp 1040 ------- 0 0.0 3.0 130 436
r 0.47064 2 3 tcp 1040 ------- 0 0.0 3.0 100 356
r 0.470816 3 2 ack 40 ------- 0 3.0 0.0 92 443
r 0.47096 2 1 ack 40 ------- 0 3.0 0.0 83 421
r 0.471136 1 0 ack 40 ------- 0 3.0 0.0 75 408
r 0.471312 0 1 tcp 1040 ------- 0 0.0 3.0 131 437
r 0.471328 1 2 tcp 1040 ------- 0 0.0 3.0 110 369
r 0.471472 2 3 tcp 1040 ------- 0 0.0 3.0 101 358
r 0.471792 2 1 ack 40 ------- 0 3.0 0.0 84 422
r 0.472144 0 1 tcp 1040 ------- 0 0.0 3.0 132 438
r 0.47216 1 2 tcp 1040 ------- 0 0.0 3.0 111 371
r 0.472304 2 3 tcp 1040 ------- 0 0.0 3.0 102 359
r 0.472448 3 2 ack 40 ------- 0 3.0 0.0 93 447
r 0.472624 2 1 ack 40 ------- 0 3.0 0.0 85 424
r 0.472768 1 0 ack 40 ------- 0 3.0 0.0 76 410
r 0.472976 0 1 tcp 1040 ------- 0 0.0 3.0 133 441
r 0.47328 3 2 ack 40 ------- 0 3.0 0.0 94 450
r 0.4736 1 0 ack 40 ------- 0 3.0 0.0 77 411
r 0.473792 1 2 tcp 1040 ------- 0 0.0 3.0 112 372
r 0.473808 0 1 tcp 1040 ------- 0 0.0 3.0 134 442
r 0.473936 2 3 tcp 1040 ------- 0 0.0 3.0 103 360
r 0.474256 2 1 ack 40 ------- 0 3.0 0.0 86 426
r 0.474432 1 0 ack 40 ------- 0 3.0 0.0 78 413
r 0.474624 1 2 tcp 1040 ------- 0 0.0 3.0 113 373
r 0.47464 0 1 tcp 1040 ------- 0 0.0 3.0 135 445
r 0.474768 2 3 tcp 1040 ------- 0 0.0 3.0 104 361
r 0.474912 3 2 ack 40 ------- 0 3.0 0.0 95 454
r 0.475088 2 1 ack 40 ------- 0 3.0 0.0 87 427
r 0.475456 1 2 tcp 1040 ------- 0 0.0 3.0 114 374
r 0.475472 0 1 tcp 1040 ------- 0 0.0 3.0 136 446
r 0.475744 3 2 ack 40 ------- 0 3.0 0.0 96 457
r 0.476064 1 0 ack 40 ------- 0 3.0 0.0 79 414
r 0.476304 0 1 tcp 1040 ------- 0 0.0 3.0 137 448
r 0.4764 2 3 tcp 1040 ------- 0 0.0 3.0 105 363
r 0.476576 3 2 ack 40 ------- 0 3.0 0.0 97 459
r 0.47672 2 1 ack 40 ------- 0 3.0 0.0 88 429
r 0.476896 1 0 ack 40 ------- 0 3.0 0.0 80 416