r 0.030032 0 1 tcp 40 ------- 0 0.0 3.0 0 0
r 0.040832 1 2 tcp 40 ------- 0 0.0 3.0 0 0
r 0.050864 2 3 tcp 40 ------- 0 0.0 3.0 0 0
r 0.060896 3 2 ack 40 ------- 0 3.0 0.0 0 25
r 0.070928 2 1 ack 40 ------- 0 3.0 0.0 0 25
r 0.08096 1 0 ack 40 ------- 0 3.0 0.0 0 25
r 0.091792 0 1 tcp 1040 ------- 0 0.0 3.0 1 60
r 0.092624 0 1 tcp 1040 ------- 0 0.0 3.0 2 61
r 0.102965 1 2 tcp 1040 ------- 0 0.0 3.0 1 60
r 0.104597 1 2 tcp 1040 ------- 0 0.0 3.0 2 61
r 0.113797 2 3 tcp 1040 ------- 0 0.0 3.0 1 60
r 0.115429 2 3 tcp 1040 ------- 0 0.0 3.0 2 61
r 0.123829 3 2 ack 40 ------- 0 3.0 0.0 1 99
r 0.125461 3 2 ack 40 ------- 0 3.0 0.0 2 102
r 0.133861 2 1 ack 40 ------- 0 3.0 0.0 1 99
r 0.135493 2 1 ack 40 ------- 0 3.0 0.0 2 102
r 0.143893 1 0 ack 40 ------- 0 3.0 0.0 1 99
r 0.145525 1 0 ack 40 ------- 0 3.0 0.0 2 102
r 0.154725 0 1 tcp 1040 ------- 0 0.0 3.0 3 135
r 0.155557 0 1 tcp 1040 ------- 0 0.0 3.0 4 136
r 0.156389 0 1 tcp 1040 ------- 0 0.0 3.0 5 138
r 0.157221 0 1 tcp 1040 ------- 0 0.0 3.0 6 139
r 0.166076 1 2 tcp 1040 ------- 0 0.0 3.0 3 135
r 0.167708 1 2 tcp 1040 ------- 0 0.0 3.0 4 136
r 0.16934 1 2 tcp 1040 ------- 0 0.0 3.0 5 138
r 0.170972 1 2 tcp 1040 ------- 0 0.0 3.0 6 139
r 0.176908 2 3 tcp 1040 ------- 0 0.0 3.0 3 135
r 0.17854 2 3 tcp 1040 ------- 0 0.0 3.0 4 136
r 0.180172 2 3 tcp 1040 ------- 0 0.0 3.0 5 138
r 0.181804 2 3 tcp 1040 ------- 0 0.0 3.0 6 139
r 0.18694 3 2 ack 40 ------- 0 3.0 0.0 3 176
r 0.188572 3 2 ack 40 ------- 0 3.0 0.0 4 179
r 0.190204 3 2 ack 40 ------- 0 3.0 0.0 5 181
r 0.191836 3 2 ack 40 ------- 0 3.0 0.0 6 184
r 0.196972 2 1 ack 40 ------- 0 3.0 0.0 3 176
r 0.198604 2 1 ack 40 ------- 0 3.0 0.0 4 179
r 0.200236 2 1 ack 40 ------- 0 3.0 0.0 5 181
r 0.201868 2 1 ack 40 ------- 0 3.0 0.0 6 184
r 0.207004 1 0 ack 40 ------- 0 3.0 0.0 3 176
r 0.208636 1 0 ack 40 ------- 0 3.0 0.0 4 179
r 0.210268 1 0 ack 40 ------- 0 3.0 0.0 5 181
r 0.2119 1 0 ack 40 ------- 0 3.0 0.0 6 184
r 0.217836 0 1 tcp 1040 ------- 0 0.0 3.0 7 214
r 0.218668 0 1 tcp 1040 ------- 0 0.0 3.0 8 215
r 0.2195 0 1 tcp 1040 ------- 0 0.0 3.0 9 217
r 0.220332 0 1 tcp 1040 ------- 0 0.0 3.0 10 218
r 0.221164 0 1 tcp 1040 ------- 0 0.0 3.0 11 221
r 0.221996 0 1 tcp 1040 ------- 0 0.0 3.0 12 222
r 0.222828 0 1 tcp 1040 ------- 0 0.0 3.0 13 225
r 0.22366 0 1 tcp 1040 ------- 0 0.0 3.0 14 226
r 0.229188 1 2 tcp 1040 ------- 0 0.0 3.0 7 214
r 0.23082 1 2 tcp 1040 ------- 0 0.0 3.0 8 215
r 0.232452 1 2 tcp 1040 ------- 0 0.0 3.0 9 217
r 0.234084 1 2 tcp 1040 ------- 0 0.0 3.0 10 218
r 0.235716 1 2 tcp 1040 ------- 0 0.0 3.0 11 221
r 0.236548 1 2 tcp 1040 ------- 0 0.0 3.0 12 222
r 0.23818 1 2 tcp 1040 ------- 0 0.0 3.0 13 225
r 0.239812 1 2 tcp 1040 ------- 0 0.0 3.0 14 226
r 0.24002 2 3 tcp 1040 ------- 0 0.0 3.0 7 214
r 0.241652 2 3 tcp 1040 ------- 0 0.0 3.0 8 215
r 0.243284 2 3 tcp 1040 ------- 0 0.0 3.0 9 217
r 0.244916 2 3 tcp 1040 ------- 0 0.0 3.0 10 218
r 0.246548 2 3 tcp 1040 ------- 0 0.0 3.0 11 221
r 0.24738 2 3 tcp 1040 ------- 0 0.0 3.0 12 222
r 0.249012 2 3 tcp 1040 ------- 0 0.0 3.0 13 225
r 0.250052 3 2 ack 40 ------- 0 3.0 0.0 7 259
r 0.250644 2 3 tcp 1040 ------- 0 0.0 3.0 14 226
r 0.251684 3 2 ack 40 ------- 0 3.0 0.0 8 262
r 0.253316 3 2 ack 40 ------- 0 3.0 0.0 9 264
r 0.254948 3 2 ack 40 ------- 0 3.0 0.0 10 267
r 0.25658 3 2 ack 40 ------- 0 3.0 0.0 11 270
r 0.257412 3 2 ack 40 ------- 0 3.0 0.0 12 272
r 0.259044 3 2 ack 40 ------- 0 3.0 0.0 13 275
r 0.260084 2 1 ack 40 ------- 0 3.0 0.0 7 259
r 0.260676 3 2 ack 40 ------- 0 3.0 0.0 14 278
r 0.261716 2 1 ack 40 ------- 0 3.0 0.0 8 262
r 0.263348 2 1 ack 40 ------- 0 3.0 0.0 9 264
r 0.26498 2 1 ack 40 ------- 0 3.0 0.0 10 267
r 0.266612 2 1 ack 40 ------- 0 3.0 0.0 11 270
r 0.267444 2 1 ack 40 ------- 0 3.0 0.0 12 272
r 0.269076 2 1 ack 40 ------- 0 3.0 0.0 13 275
r 0.270116 1 0 ack 40 ------- 0 3.0 0.0 7 259
r 0.270708 2 1 ack 40 ------- 0 3.0 0.0 14 278
r 0.271748 1 0 ack 40 ------- 0 3.0 0.0 8 262
r 0.27338 1 0 ack 40 ------- 0 3.0 0.0 9 264
r 0.275012 1 0 ack 40 ------- 0 3.0 0.0 10 267
r 0.276644 1 0 ack 40 ------- 0 3.0 0.0 11 270
r 0.277476 1 0 ack 40 ------- 0 3.0 0.0 12 272
r 0.279108 1 0 ack 40 ------- 0 3.0 0.0 13 275
r 0.28074 1 0 ack 40 ------- 0 3.0 0.0 14 278
r 0.280948 0 1 tcp 1040 ------- 0 0.0 3.0 15 301
r 0.28178 0 1 tcp 1040 ------- 0 0.0 3.0 16 302
r 0.282612 0 1 tcp 1040 ------- 0 0.0 3.0 17 304
r 0.283444 0 1 tcp 1040 ------- 0 0.0 3.0 18 305
r 0.284276 0 1 tcp 1040 ------- 0 0.0 3.0 19 308
r 0.285108 0 1 tcp 1040 ------- 0 0.0 3.0 20 309
r 0.28594 0 1 tcp 1040 ------- 0 0.0 3.0 21 312
r 0.286772 0 1 tcp 1040 ------- 0 0.0 3.0 22 313
r 0.287604 0 1 tcp 1040 ------- 0 0.0 3.0 23 316
r 0.288436 0 1 tcp 1040 ------- 0 0.0 3.0 24 317
r 0.289268 0 1 tcp 1040 ------- 0 0.0 3.0 25 319
r 0.2901 0 1 tcp 1040 ------- 0 0.0 3.0 26 320
r 0.290932 0 1 tcp 1040 ------- 0 0.0 3.0 27 323
r 0.291764 0 1 tcp 1040 ------- 0 0.0 3.0 28 324
r 0.292596 0 1 tcp 1040 ------- 0 0.0 3.0 29 327
r 0.292644 1 2 tcp 1040 ------- 0 0.0 3.0 15 301
r 0.293428 0 1 tcp 1040 ------- 0 0.0 3.0 30 328
r 0.294276 1 2 tcp 1040 ------- 0 0.0 3.0 16 302
r 0.295908 1 2 tcp 1040 ------- 0 0.0 3.0 17 304
r 0.29754 1 2 tcp 1040 ------- 0 0.0 3.0 18 305
r 0.299172 1 2 tcp 1040 ------- 0 0.0 3.0 19 308
r 0.300004 1 2 tcp 1040 ------- 0 0.0 3.0 20 309
r 0.301636 1 2 tcp 1040 ------- 0 0.0 3.0 21 312
r 0.303268 1 2 tcp 1040 ------- 0 0.0 3.0 22 313
r 0.303476 2 3 tcp 1040 ------- 0 0.0 3.0 15 301
r 0.3049 1 2 tcp 1040 ------- 0 0.0 3.0 23 316
r 0.305108 2 3 tcp 1040 ------- 0 0.0 3.0 16 302
r 0.306532 1 2 tcp 1040 ------- 0 0.0 3.0 24 317
r 0.30674 2 3 tcp 1040 ------- 0 0.0 3.0 17 304
r 0.308164 1 2 tcp 1040 ------- 0 0.0 3.0 25 319
r 0.308372 2 3 tcp 1040 ------- 0 0.0 3.0 18 305
r 0.309796 1 2 tcp 1040 ------- 0 0.0 3.0 26 320
r 0.310004 2 3 tcp 1040 ------- 0 0.0 3.0 19 308
r 0.310836 2 3 tcp 1040 ------- 0 0.0 3.0 20 309
r 0.311428 1 2 tcp 1040 ------- 0 0.0 3.0 27 323
r 0.312468 2 3 tcp 1040 ------- 0 0.0 3.0 21 312
r 0.31306 1 2 tcp 1040 ------- 0 0.0 3.0 28 324
r 0.313508 3 2 ack 40 ------- 0 3.0 0.0 15 354
r 0.3141 2 3 tcp 1040 ------- 0 0.0 3.0 22 313
r 0.314692 1 2 tcp 1040 ------- 0 0.0 3.0 29 327
r 0.31514 3 2 ack 40 ------- 0 3.0 0.0 16 357
r 0.315732 2 3 tcp 1040 ------- 0 0.0 3.0 23 316
r 0.316324 1 2 tcp 1040 ------- 0 0.0 3.0 30 328
r 0.316772 3 2 ack 40 ------- 0 3.0 0.0 17 360
r 0.317364 2 3 tcp 1040 ------- 0 0.0 3.0 24 317
r 0.318404 3 2 ack 40 ------- 0 3.0 0.0 18 363
r 0.318996 2 3 tcp 1040 ------- 0 0.0 3.0 25 319
r 0.320036 3 2 ack 40 ------- 0 3.0 0.0 19 366
r 0.320628 2 3 tcp 1040 ------- 0 0.0 3.0 26 320
r 0.320868 3 2 ack 40 ------- 0 3.0 0.0 20 367
r 0.32226 2 3 tcp 1040 ------- 0 0.0 3.0 27 323
r 0.3225 3 2 ack 40 ------- 0 3.0 0.0 21 370
r 0.32354 2 1 ack 40 ------- 0 3.0 0.0 15 354
r 0.323892 2 3 tcp 1040 ------- 0 0.0 3.0 28 324
r 0.324132 3 2 ack 40 ------- 0 3.0 0.0 22 373
r 0.325172 2 1 ack 40 ------- 0 3.0 0.0 16 357
r 0.325524 2 3 tcp 1040 ------- 0 0.0 3.0 29 327
r 0.325764 3 2 ack 40 ------- 0 3.0 0.0 23 376
r 0.326804 2 1 ack 40 ------- 0 3.0 0.0 17 360
r 0.327156 2 3 tcp 1040 ------- 0 0.0 3.0 30 328
r 0.327396 3 2 ack 40 ------- 0 3.0 0.0 24 379
r 0.328436 2 1 ack 40 ------- 0 3.0 0.0 18 363
r 0.329028 3 2 ack 40 ------- 0 3.0 0.0 25 382
r 0.330068 2 1 ack 40 ------- 0 3.0 0.0 19 366
r 0.33066 3 2 ack 40 ------- 0 3.0 0.0 26 384
r 0.3309 2 1 ack 40 ------- 0 3.0 0.0 20 367
r 0.332292 3 2 ack 40 ------- 0 3.0 0.0 27 387
r 0.332532 2 1 ack 40 ------- 0 3.0 0.0 21 370
r 0.333572 1 0 ack 40 ------- 0 3.0 0.0 15 354
r 0.333924 3 2 ack 40 ------- 0 3.0 0.0 28 390
r 0.334164 2 1 ack 40 ------- 0 3.0 0.0 22 373
r 0.335204 1 0 ack 40 ------- 0 3.0 0.0 16 357
r 0.335556 3 2 ack 40 ------- 0 3.0 0.0 29 393
r 0.335796 2 1 ack 40 ------- 0 3.0 0.0 23 376
r 0.336836 1 0 ack 40 ------- 0 3.0 0.0 17 360
r 0.337188 3 2 ack 40 ------- 0 3.0 0.0 30 396
r 0.337428 2 1 ack 40 ------- 0 3.0 0.0 24 379
r 0.338468 1 0 ack 40 ------- 0 3.0 0.0 18 363
r 0.33906 2 1 ack 40 ------- 0 3.0 0.0 25 382
r 0.3401 1 0 ack 40 ------- 0 3.0 0.0 19 366
r 0.340692 2 1 ack 40 ------- 0 3.0 0.0 26 384
r 0.340932 1 0 ack 40 ------- 0 3.0 0.0 20 367
r 0.342324 2 1 ack 40 ------- 0 3.0 0.0 27 387
r 0.342564 1 0 ack 40 ------- 0 3.0 0.0 21 370
r 0.343956 2 1 ack 40 ------- 0 3.0 0.0 28 390
r 0.344196 1 0 ack 40 ------- 0 3.0 0.0 22 373
r 0.344404 0 1 tcp 1040 ------- 0 0.0 3.0 31 404
r 0.345236 0 1 tcp 1040 ------- 0 0.0 3.0 32 405
r 0.345588 2 1 ack 40 ------- 0 3.0 0.0 29 393
r 0.345828 1 0 ack 40 ------- 0 3.0 0.0 23 376
r 0.346068 0 1 tcp 1040 ------- 0 0.0 3.0 33 408
r 0.3469 0 1 tcp 1040 ------- 0 0.0 3.0 34 409
r 0.34722 2 1 ack 40 ------- 0 3.0 0.0 30 396
r 0.34746 1 0 ack 40 ------- 0 3.0 0.0 24 379
r 0.347732 0 1 tcp 1040 ------- 0 0.0 3.0 35 412
r 0.348564 0 1 tcp 1040 ------- 0 0.0 3.0 36 413
r 0.349092 1 0 ack 40 ------- 0 3.0 0.0 25 382
r 0.349396 0 1 tcp 1040 ------- 0 0.0 3.0 37 416
r 0.350228 0 1 tcp 1040 ------- 0 0.0 3.0 38 417
r 0.350724 1 0 ack 40 ------- 0 3.0 0.0 26 384
r 0.35106 0 1 tcp 1040 ------- 0 0.0 3.0 39 419
r 0.351892 0 1 tcp 1040 ------- 0 0.0 3.0 40 420
r 0.352356 1 0 ack 40 ------- 0 3.0 0.0 27 387
r 0.352724 0 1 tcp 1040 ------- 0 0.0 3.0 41 422
r 0.353556 0 1 tcp 1040 ------- 0 0.0 3.0 42 423
r 0.353988 1 0 ack 40 ------- 0 3.0 0.0 28 390
r 0.354388 0 1 tcp 1040 ------- 0 0.0 3.0 43 426
r 0.35522 0 1 tcp 1040 ------- 0 0.0 3.0 44 427
r 0.35562 1 0 ack 40 ------- 0 3.0 0.0 29 393
r 0.356052 0 1 tcp 1040 ------- 0 0.0 3.0 45 430
r 0.356884 0 1 tcp 1040 ------- 0 0.0 3.0 46 431
r 0.357252 1 0 ack 40 ------- 0 3.0 0.0 30 396
r 0.357716 0 1 tcp 1040 ------- 0 0.0 3.0 47 434
r 0.358548 0 1 tcp 1040 ------- 0 0.0 3.0 48 435
r 0.35938 0 1 tcp 1040 ------- 0 0.0 3.0 49 438
r 0.360212 0 1 tcp 1040 ------- 0 0.0 3.0 50 439
r 0.361044 0 1 tcp 1040 ------- 0 0.0 3.0 51 441
r 0.361876 0 1 tcp 1040 ------- 0 0.0 3.0 52 442
r 0.362708 0 1 tcp 1040 ------- 0 0.0 3.0 53 445
r 0.362756 1 2 tcp 1040 ------- 0 0.0 3.0 31 404
r 0.36354 0 1 tcp 1040 ------- 0 0.0 3.0 54 446
r 0.364372 0 1 tcp 1040 ------- 0 0.0 3.0 55 449
r 0.364388 1 2 tcp 1040 ------- 0 0.0 3.0 32 405
r 0.365204 0 1 tcp 1040 ------- 0 0.0 3.0 56 450
r 0.36602 1 2 tcp 1040 ------- 0 0.0 3.0 33 408
r 0.366036 0 1 tcp 1040 ------- 0 0.0 3.0 57 453
r 0.366868 0 1 tcp 1040 ------- 0 0.0 3.0 58 454
r 0.367652 1 2 tcp 1040 ------- 0 0.0 3.0 34 409
r 0.3677 0 1 tcp 1040 ------- 0 0.0 3.0 59 457
r 0.368532 0 1 tcp 1040 ------- 0 0.0 3.0 60 458
r 0.369284 1 2 tcp 1040 ------- 0 0.0 3.0 35 412
r 0.369364 0 1 tcp 1040 ------- 0 0.0 3.0 61 461
r 0.370196 0 1 tcp 1040 ------- 0 0.0 3.0 62 462
r 0.370916 1 2 tcp 1040 ------- 0 0.0 3.0 36 413
r 0.372548 1 2 tcp 1040 ------- 0 0.0 3.0 37 416
r 0.373588 2 3 tcp 1040 ------- 0 0.0 3.0 31 404
r 0.37418 1 2 tcp 1040 ------- 0 0.0 3.0 38 417
r 0.37522 2 3 tcp 1040 ------- 0 0.0 3.0 32 405
r 0.375812 1 2 tcp 1040 ------- 0 0.0 3.0 39 419
r 0.376852 2 3 tcp 1040 ------- 0 0.0 3.0 33 408
r 0.377444 1 2 tcp 1040 ------- 0 0.0 3.0 40 420
r 0.378484 2 3 tcp 1040 ------- 0 0.0 3.0 34 409
r 0.379076 1 2 tcp 1040 ------- 0 0.0 3.0 41 422
r 0.380116 2 3 tcp 1040 ------- 0 0.0 3.0 35 412
r 0.380708 1 2 tcp 1040 ------- 0 0.0 3.0 42 423
r 0.38154 1 2 tcp 1040 ------- 0 0.0 3.0 43 426
r 0.381748 2 3 tcp 1040 ------- 0 0.0 3.0 36 413
r 0.383172 1 2 tcp 1040 ------- 0 0.0 3.0 44 427
r 0.38338 2 3 tcp 1040 ------- 0 0.0 3.0 37 416
r 0.38362 3 2 ack 40 ------- 0 3.0 0.0 31 481
r 0.384804 1 2 tcp 1040 ------- 0 0.0 3.0 45 430
r 0.385012 2 3 tcp 1040 ------- 0 0.0 3.0 38 417
r 0.385252 3 2 ack 40 ------- 0 3.0 0.0 32 484
r 0.386436 1 2 tcp 1040 ------- 0 0.0 3.0 46 431
r 0.386644 2 3 tcp 1040 ------- 0 0.0 3.0 39 419
r 0.386884 3 2 ack 40 ------- 0 3.0 0.0 33 487
r 0.388068 1 2 tcp 1040 ------- 0 0.0 3.0 47 434
r 0.388276 2 3 tcp 1040 ------- 0 0.0 3.0 40 420
r 0.388516 3 2 ack 40 ------- 0 3.0 0.0 34 490
r 0.3897 1 2 tcp 1040 ------- 0 0.0 3.0 48 435
r 0.389908 2 3 tcp 1040 ------- 0 0.0 3.0 41 422
r 0.390148 3 2 ack 40 ------- 0 3.0 0.0 35 492
r 0.391332 1 2 tcp 1040 ------- 0 0.0 3.0 49 438
r 0.39154 2 3 tcp 1040 ------- 0 0.0 3.0 42 423
r 0.39178 3 2 ack 40 ------- 0 3.0 0.0 36 495
r 0.392372 2 3 tcp 1040 ------- 0 0.0 3.0 43 426
r 0.392964 1 2 tcp 1040 ------- 0 0.0 3.0 50 439
r 0.393412 3 2 ack 40 ------- 0 3.0 0.0 37 498
r 0.393652 2 1 ack 40 ------- 0 3.0 0.0 31 481
r 0.394004 2 3 tcp 1040 ------- 0 0.0 3.0 44 427
r 0.394596 1 2 tcp 1040 ------- 0 0.0 3.0 51 441
r 0.395044 3 2 ack 40 ------- 0 3.0 0.0 38 501
r 0.395284 2 1 ack 40 ------- 0 3.0 0.0 32 484
r 0.395636 2 3 tcp 1040 ------- 0 0.0 3.0 45 430
r 0.396228 1 2 tcp 1040 ------- 0 0.0 3.0 52 442
r 0.396676 3 2 ack 40 ------- 0 3.0 0.0 39 504
r 0.396916 2 1 ack 40 ------- 0 3.0 0.0 33 487
r 0.397268 2 3 tcp 1040 ------- 0 0.0 3.0 46 431
r 0.39786 1 2 tcp 1040 ------- 0 0.0 3.0 53 445
r 0.398308 3 2 ack 40 ------- 0 3.0 0.0 40 507
r 0.398548 2 1 ack 40 ------- 0 3.0 0.0 34 490
r 0.3989 2 3 tcp 1040 ------- 0 0.0 3.0 47 434
r 0.399492 1 2 tcp 1040 ------- 0 0.0 3.0 54 446
r 0.39994 3 2 ack 40 ------- 0 3.0 0.0 41 509
r 0.40018 2 1 ack 40 ------- 0 3.0 0.0 35 492
r 0.400532 2 3 tcp 1040 ------- 0 0.0 3.0 48 435
r 0.401124 1 2 tcp 1040 ------- 0 0.0 3.0 55 449
r 0.401572 3 2 ack 40 ------- 0 3.0 0.0 42 512
r 0.401812 2 1 ack 40 ------- 0 3.0 0.0 36 495
r 0.402164 2 3 tcp 1040 ------- 0 0.0 3.0 49 438
r 0.402404 3 2 ack 40 ------- 0 3.0 0.0 43 514
r 0.402756 1 2 tcp 1040 ------- 0 0.0 3.0 56 450
r 0.403444 2 1 ack 40 ------- 0 3.0 0.0 37 498
r 0.403684 1 0 ack 40 ------- 0 3.0 0.0 31 481
r 0.403796 2 3 tcp 1040 ------- 0 0.0 3.0 50 439
r 0.404036 3 2 ack 40 ------- 0 3.0 0.0 44 517
r 0.404388 1 2 tcp 1040 ------- 0 0.0 3.0 57 453
r 0.405076 2 1 ack 40 ------- 0 3.0 0.0 38 501
r 0.40522 1 2 tcp 1040 ------- 0 0.0 3.0 58 454
r 0.405316 1 0 ack 40 ------- 0 3.0 0.0 32 484
r 0.405428 2 3 tcp 1040 ------- 0 0.0 3.0 51 441
r 0.405668 3 2 ack 40 ------- 0 3.0 0.0 45 520
r 0.406708 2 1 ack 40 ------- 0 3.0 0.0 39 504
r 0.406852 1 2 tcp 1040 ------- 0 0.0 3.0 59 457
r 0.406948 1 0 ack 40 ------- 0 3.0 0.0 33 487
r 0.40706 2 3 tcp 1040 ------- 0 0.0 3.0 52 442
r 0.4073 3 2 ack 40 ------- 0 3.0 0.0 46 523
r 0.40834 2 1 ack 40 ------- 0 3.0 0.0 40 507
r 0.408484 1 2 tcp 1040 ------- 0 0.0 3.0 60 458
r 0.40858 1 0 ack 40 ------- 0 3.0 0.0 34 490
r 0.408692 2 3 tcp 1040 ------- 0 0.0 3.0 53 445
r 0.408932 3 2 ack 40 ------- 0 3.0 0.0 47 526
r 0.409972 2 1 ack 40 ------- 0 3.0 0.0 41 509
r 0.410116 1 2 tcp 1040 ------- 0 0.0 3.0 61 461
r 0.410212 1 0 ack 40 ------- 0 3.0 0.0 35 492
r 0.410324 2 3 tcp 1040 ------- 0 0.0 3.0 54 446
r 0.410564 3 2 ack 40 ------- 0 3.0 0.0 48 528
r 0.411604 2 1 ack 40 ------- 0 3.0 0.0 42 512
r 0.411748 1 2 tcp 1040 ------- 0 0.0 3.0 62 462
r 0.411844 1 0 ack 40 ------- 0 3.0 0.0 36 495
r 0.411956 2 3 tcp 1040 ------- 0 0.0 3.0 55 449
r 0.412196 3 2 ack 40 ------- 0 3.0 0.0 49 531
r 0.412436 2 1 ack 40 ------- 0 3.0 0.0 43 514
r 0.413476 1 0 ack 40 ------- 0 3.0 0.0 37 498
r 0.413588 2 3 tcp 1040 ------- 0 0.0 3.0 56 450
r 0.413828 3 2 ack 40 ------- 0 3.0 0.0 50 536
r 0.414068 2 1 ack 40 ------- 0 3.0 0.0 44 517
r 0.414516 0 1 tcp 1040 ------- 0 0.0 3.0 63 534
r 0.415108 1 0 ack 40 ------- 0 3.0 0.0 38 501
r 0.41522 2 3 tcp 1040 ------- 0 0.0 3.0 57 453
r 0.415348 0 1 tcp 1040 ------- 0 0.0 3.0 64 535
r 0.41546 3 2 ack 40 ------- 0 3.0 0.0 51 541
r 0.4157 2 1 ack 40 ------- 0 3.0 0.0 45 520
r 0.416052 2 3 tcp 1040 ------- 0 0.0 3.0 58 454
r 0.41618 0 1 tcp 1040 ------- 0 0.0 3.0 65 539
r 0.41674 1 0 ack 40 ------- 0 3.0 0.0 39 504
r 0.417012 0 1 tcp 1040 ------- 0 0.0 3.0 66 540
r 0.417092 3 2 ack 40 ------- 0 3.0 0.0 52 546
r 0.417332 2 1 ack 40 ------- 0 3.0 0.0 46 523
r 0.417684 2 3 tcp 1040 ------- 0 0.0 3.0 59 457
r 0.417844 0 1 tcp 1040 ------- 0 0.0 3.0 67 544
r 0.418372 1 0 ack 40 ------- 0 3.0 0.0 40 507
r 0.418676 0 1 tcp 1040 ------- 0 0.0 3.0 68 545
r 0.418724 3 2 ack 40 ------- 0 3.0 0.0 53 551
r 0.418964 2 1 ack 40 ------- 0 3.0 0.0 47 526
r 0.419316 2 3 tcp 1040 ------- 0 0.0 3.0 60 458
r 0.419508 0 1 tcp 1040 ------- 0 0.0 3.0 69 548
r 0.420004 1 0 ack 40 ------- 0 3.0 0.0 41 509
r 0.42034 0 1 tcp 1040 ------- 0 0.0 3.0 70 549
r 0.420356 3 2 ack 40 ------- 0 3.0 0.0 54 555
r 0.420596 2 1 ack 40 ------- 0 3.0 0.0 48 528
r 0.420948 2 3 tcp 1040 ------- 0 0.0 3.0 61 461
r 0.421172 0 1 tcp 1040 ------- 0 0.0 3.0 71 553
r 0.421636 1 0 ack 40 ------- 0 3.0 0.0 42 512
r 0.421988 3 2 ack 40 ------- 0 3.0 0.0 55 560
r 0.422004 0 1 tcp 1040 ------- 0 0.0 3.0 72 554
r 0.422228 2 1 ack 40 ------- 0 3.0 0.0 49 531
r 0.422468 1 0 ack 40 ------- 0 3.0 0.0 43 514
r 0.42258 2 3 tcp 1040 ------- 0 0.0 3.0 62 462
r 0.422836 0 1 tcp 1040 ------- 0 0.0 3.0 73 558
r 0.42362 3 2 ack 40 ------- 0 3.0 0.0 56 565
r 0.423668 0 1 tcp 1040 ------- 0 0.0 3.0 74 559
r 0.42386 2 1 ack 40 ------- 0 3.0 0.0 50 536
r 0.4241 1 0 ack 40 ------- 0 3.0 0.0 44 517
r 0.4245 0 1 tcp 1040 ------- 0 0.0 3.0 75 563
r 0.425252 3 2 ack 40 ------- 0 3.0 0.0 57 570
r 0.425332 0 1 tcp 1040 ------- 0 0.0 3.0 76 564
r 0.425492 2 1 ack 40 ------- 0 3.0 0.0 51 541
r 0.425732 1 0 ack 40 ------- 0 3.0 0.0 45 520
r 0.426084 3 2 ack 40 ------- 0 3.0 0.0 58 572
r 0.426164 0 1 tcp 1040 ------- 0 0.0 3.0 77 568
r 0.426996 0 1 tcp 1040 ------- 0 0.0 3.0 78 569
r 0.427124 2 1 ack 40 ------- 0 3.0 0.0 52 546
r 0.427364 1 0 ack 40 ------- 0 3.0 0.0 46 523
r 0.427716 3 2 ack 40 ------- 0 3.0 0.0 59 577
r 0.427828 0 1 tcp 1040 ------- 0 0.0 3.0 79 574
r 0.42866 0 1 tcp 1040 ------- 0 0.0 3.0 80 575
d 0.42866 1 2 tcp 1040 ------- 0 0.0 3.0 80 575
r 0.428756 2 1 ack 40 ------- 0 3.0 0.0 53 551
r 0.428996 1 0 ack 40 ------- 0 3.0 0.0 47 526
r 0.429348 3 2 ack 40 ------- 0 3.0 0.0 60 581
r 0.429492 0 1 tcp 1040 ------- 0 0.0 3.0 81 578
d 0.429492 1 2 tcp 1040 ------- 0 0.0 3.0 81 578
r 0.430324 0 1 tcp 1040 ------- 0 0.0 3.0 82 579
d 0.430324 1 2 tcp 1040 ------- 0 0.0 3.0 82 579
r 0.430388 2 1 ack 40 ------- 0 3.0 0.0 54 555
r 0.430628 1 0 ack 40 ------- 0 3.0 0.0 48 528
r 0.43098 3 2 ack 40 ------- 0 3.0 0.0 61 586
r 0.431156 0 1 tcp 1040 ------- 0 0.0 3.0 83 583
d 0.431156 1 2 tcp 1040 ------- 0 0.0 3.0 83 583
r 0.431988 0 1 tcp 1040 ------- 0 0.0 3.0 84 584
d 0.431988 1 2 tcp 1040 ------- 0 0.0 3.0 84 584
r 0.43202 2 1 ack 40 ------- 0 3.0 0.0 55 560
r 0.43226 1 0 ack 40 ------- 0 3.0 0.0 49 531
r 0.432612 3 2 ack 40 ------- 0 3.0 0.0 62 593
r 0.43282 0 1 tcp 1040 ------- 0 0.0 3.0 85 588
d 0.43282 1 2 tcp 1040 ------- 0 0.0 3.0 85 588
r 0.433652 0 1 tcp 1040 ------- 0 0.0 3.0 86 589
d 0.433652 1 2 tcp 1040 ------- 0 0.0 3.0 86 589
r 0.433652 2 1 ack 40 ------- 0 3.0 0.0 56 565
r 0.433892 1 0 ack 40 ------- 0 3.0 0.0 50 536
r 0.434484 0 1 tcp 1040 ------- 0 0.0 3.0 87 591
d 0.434484 1 2 tcp 1040 ------- 0 0.0 3.0 87 591
r 0.435284 2 1 ack 40 ------- 0 3.0 0.0 57 570
r 0.435316 0 1 tcp 1040 ------- 0 0.0 3.0 88 592
r 0.435524 1 0 ack 40 ------- 0 3.0 0.0 51 541
r 0.436116 2 1 ack 40 ------- 0 3.0 0.0 58 572
r 0.436148 0 1 tcp 1040 ------- 0 0.0 3.0 89 596
r 0.43698 0 1 tcp 1040 ------- 0 0.0 3.0 90 597
r 0.437156 1 0 ack 40 ------- 0 3.0 0.0 52 546
r 0.437748 2 1 ack 40 ------- 0 3.0 0.0 59 577
r 0.437812 0 1 tcp 1040 ------- 0 0.0 3.0 91 600
r 0.438644 0 1 tcp 1040 ------- 0 0.0 3.0 92 601
r 0.438788 1 0 ack 40 ------- 0 3.0 0.0 53 551
r 0.43938 2 1 ack 40 ------- 0 3.0 0.0 60 581
r 0.439476 0 1 tcp 1040 ------- 0 0.0 3.0 93 604
r 0.440308 0 1 tcp 1040 ------- 0 0.0 3.0 94 605
r 0.44042 1 0 ack 40 ------- 0 3.0 0.0 54 555
r 0.441012 2 1 ack 40 ------- 0 3.0 0.0 61 586
r 0.44114 0 1 tcp 1040 ------- 0 0.0 3.0 95 607
r 0.441972 0 1 tcp 1040 ------- 0 0.0 3.0 96 608
r 0.442052 1 0 ack 40 ------- 0 3.0 0.0 55 560
r 0.442644 2 1 ack 40 ------- 0 3.0 0.0 62 593
r 0.442804 0 1 tcp 1040 ------- 0 0.0 3.0 97 611
r 0.443636 0 1 tcp 1040 ------- 0 0.0 3.0 98 612
r 0.443684 1 0 ack 40 ------- 0 3.0 0.0 56 565
r 0.444468 0 1 tcp 1040 ------- 0 0.0 3.0 99 615
d 0.444468 1 2 tcp 1040 ------- 0 0.0 3.0 99 615
r 0.4453 0 1 tcp 1040 ------- 0 0.0 3.0 100 616
d 0.4453 1 2 tcp 1040 ------- 0 0.0 3.0 100 616
r 0.445316 1 0 ack 40 ------- 0 3.0 0.0 57 570
r 0.446132 0 1 tcp 1040 ------- 0 0.0 3.0 101 619
d 0.446132 1 2 tcp 1040 ------- 0 0.0 3.0 101 619
r 0.446148 1 0 ack 40 ------- 0 3.0 0.0 58 572
r 0.446964 0 1 tcp 1040 ------- 0 0.0 3.0 102 620
d 0.446964 1 2 tcp 1040 ------- 0 0.0 3.0 102 620
r 0.44778 1 0 ack 40 ------- 0 3.0 0.0 59 577
r 0.447796 0 1 tcp 1040 ------- 0 0.0 3.0 103 623
d 0.447796 1 2 tcp 1040 ------- 0 0.0 3.0 103 623
r 0.448628 0 1 tcp 1040 ------- 0 0.0 3.0 104 624
r 0.449412 1 0 ack 40 ------- 0 3.0 0.0 60 581
r 0.44946 0 1 tcp 1040 ------- 0 0.0 3.0 105 627
r 0.450292 0 1 tcp 1040 ------- 0 0.0 3.0 106 628
r 0.451044 1 0 ack 40 ------- 0 3.0 0.0 61 586
r 0.451124 0 1 tcp 1040 ------- 0 0.0 3.0 107 630
r 0.451956 0 1 tcp 1040 ------- 0 0.0 3.0 108 631
r 0.45258 1 2 tcp 1040 ------- 0 0.0 3.0 63 534
r 0.452676 1 0 ack 40 ------- 0 3.0 0.0 62 593
r 0.452788 0 1 tcp 1040 ------- 0 0.0 3.0 109 634
r 0.45362 0 1 tcp 1040 ------- 0 0.0 3.0 110 635
r 0.454212 1 2 tcp 1040 ------- 0 0.0 3.0 64 535
r 0.454452 0 1 tcp 1040 ------- 0 0.0 3.0 111 638
r 0.455284 0 1 tcp 1040 ------- 0 0.0 3.0 112 639
d 0.455284 1 2 tcp 1040 ------- 0 0.0 3.0 112 639
r 0.455844 1 2 tcp 1040 ------- 0 0.0 3.0 65 539
r 0.456116 0 1 tcp 1040 ------- 0 0.0 3.0 113 642
d 0.456116 1 2 tcp 1040 ------- 0 0.0 3.0 113 642
r 0.456948 0 1 tcp 1040 ------- 0 0.0 3.0 114 643
d 0.456948 1 2 tcp 1040 ------- 0 0.0 3.0 114 643
r 0.457476 1 2 tcp 1040 ------- 0 0.0 3.0 66 540
r 0.45778 0 1 tcp 1040 ------- 0 0.0 3.0 115 646
d 0.45778 1 2 tcp 1040 ------- 0 0.0 3.0 115 646
r 0.458612 0 1 tcp 1040 ------- 0 0.0 3.0 116 647
d 0.458612 1 2 tcp 1040 ------- 0 0.0 3.0 116 647
r 0.459108 1 2 tcp 1040 ------- 0 0.0 3.0 67 544
r 0.459444 0 1 tcp 1040 ------- 0 0.0 3.0 117 649
d 0.459444 1 2 tcp 1040 ------- 0 0.0 3.0 117 649
r 0.460276 0 1 tcp 1040 ------- 0 0.0 3.0 118 650
d 0.460276 1 2 tcp 1040 ------- 0 0.0 3.0 118 650
r 0.46074 1 2 tcp 1040 ------- 0 0.0 3.0 68 545
r 0.461108 0 1 tcp 1040 ------- 0 0.0 3.0 119 653
r 0.46194 0 1 tcp 1040 ------- 0 0.0 3.0 120 654
r 0.462372 1 2 tcp 1040 ------- 0 0.0 3.0 69 548
r 0.462772 0 1 tcp 1040 ------- 0 0.0 3.0 121 656
r 0.463412 2 3 tcp 1040 ------- 0 0.0 3.0 63 534
r 0.463604 0 1 tcp 1040 ------- 0 0.0 3.0 122 657
r 0.464004 1 2 tcp 1040 ------- 0 0.0 3.0 70 549
r 0.464436 0 1 tcp 1040 ------- 0 0.0 3.0 123 660
r 0.465044 2 3 tcp 1040 ------- 0 0.0 3.0 64 535
r 0.465268 0 1 tcp 1040 ------- 0 0.0 3.0 124 661
d 0.465268 1 2 tcp 1040 ------- 0 0.0 3.0 124 661
r 0.465636 1 2 tcp 1040 ------- 0 0.0 3.0 71 553
r 0.4661 0 1 tcp 1040 ------- 0 0.0 3.0 125 664
d 0.4661 1 2 tcp 1040 ------- 0 0.0 3.0 125 664
r 0.466676 2 3 tcp 1040 ------- 0 0.0 3.0 65 539
r 0.466932 0 1 tcp 1040 ------- 0 0.0 3.0 126 665
d 0.466932 1 2 tcp 1040 ------- 0 0.0 3.0 126 665
r 0.467268 1 2 tcp 1040 ------- 0 0.0 3.0 72 554
r 0.4681 1 2 tcp 1040 ------- 0 0.0 3.0 73 558
r 0.468308 2 3 tcp 1040 ------- 0 0.0 3.0 66 540
r 0.469732 1 2 tcp 1040 ------- 0 0.0 3.0 74 559
r 0.46994 2 3 tcp 1040 ------- 0 0.0 3.0 67 544
r 0.471364 1 2 tcp 1040 ------- 0 0.0 3.0 75 563
r 0.471572 2 3 tcp 1040 ------- 0 0.0 3.0 68 545
r 0.472996 1 2 tcp 1040 ------- 0 0.0 3.0 76 564
r 0.473204 2 3 tcp 1040 ------- 0 0.0 3.0 69 548
r 0.473444 3 2 ack 40 ------- 0 3.0 0.0 63 678
r 0.474628 1 2 tcp 1040 ------- 0 0.0 3.0 77 568
r 0.474836 2 3 tcp 1040 ------- 0 0.0 3.0 70 549
r 0.475076 3 2 ack 40 ------- 0 3.0 0.0 64 681
r 0.47626 1 2 tcp 1040 ------- 0 0.0 3.0 78 569
r 0.476468 2 3 tcp 1040 ------- 0 0.0 3.0 71 553
r 0.476708 3 2 ack 40 ------- 0 3.0 0.0 65 684
r 0.477892 1 2 tcp 1040 ------- 0 0.0 3.0 79 574
r 0.4781 2 3 tcp 1040 ------- 0 0.0 3.0 72 554
r 0.47834 3 2 ack 40 ------- 0 3.0 0.0 66 687
r 0.478932 2 3 tcp 1040 ------- 0 0.0 3.0 73 558
r 0.479972 3 2 ack 40 ------- 0 3.0 0.0 67 689
r 0.480564 2 3 tcp 1040 ------- 0 0.0 3.0 74 559
r 0.481604 3 2 ack 40 ------- 0 3.0 0.0 68 692
r 0.482196 2 3 tcp 1040 ------- 0 0.0 3.0 75 563
r 0.483236 3 2 ack 40 ------- 0 3.0 0.0 69 695
r 0.483476 2 1 ack 40 ------- 0 3.0 0.0 63 678
r 0.483828 2 3 tcp 1040 ------- 0 0.0 3.0 76 564
r 0.484868 3 2 ack 40 ------- 0 3.0 0.0 70 698
r 0.485108 2 1 ack 40 ------- 0 3.0 0.0 64 681
r 0.485124 1 2 tcp 1040 ------- 0 0.0 3.0 88 592
r 0.48546 2 3 tcp 1040 ------- 0 0.0 3.0 77 568
r 0.485956 1 2 tcp 1040 ------- 0 0.0 3.0 89 596
r 0.4865 3 2 ack 40 ------- 0 3.0 0.0 71 701
r 0.48674 2 1 ack 40 ------- 0 3.0 0.0 65 684
r 0.487092 2 3 tcp 1040 ------- 0 0.0 3.0 78 569
r 0.487588 1 2 tcp 1040 ------- 0 0.0 3.0 90 597
r 0.488132 3 2 ack 40 ------- 0 3.0 0.0 72 704
r 0.488372 2 1 ack 40 ------- 0 3.0 0.0 66 687
r 0.48842 1 2 tcp 1040 ------- 0 0.0 3.0 91 600
r 0.488724 2 3 tcp 1040 ------- 0 0.0 3.0 79 574
r 0.488964 3 2 ack 40 ------- 0 3.0 0.0 73 706
r 0.489252 1 2 tcp 1040 ------- 0 0.0 3.0 92 601
r 0.490004 2 1 ack 40 ------- 0 3.0 0.0 67 689
r 0.490084 1 2 tcp 1040 ------- 0 0.0 3.0 93 604
r 0.490596 3 2 ack 40 ------- 0 3.0 0.0 74 708
r 0.490916 1 2 tcp 1040 ------- 0 0.0 3.0 94 605
r 0.491636 2 1 ack 40 ------- 0 3.0 0.0 68 692
r 0.491748 1 2 tcp 1040 ------- 0 0.0 3.0 95 607
r 0.492228 3 2 ack 40 ------- 0 3.0 0.0 75 711
r 0.49258 1 2 tcp 1040 ------- 0 0.0 3.0 96 608
r 0.493268 2 1 ack 40 ------- 0 3.0 0.0 69 695
r 0.493412 1 2 tcp 1040 ------- 0 0.0 3.0 97 611
r 0.493508 1 0 ack 40 ------- 0 3.0 0.0 63 678
r 0.49386 3 2 ack 40 ------- 0 3.0 0.0 76 714
r 0.494244 1 2 tcp 1040 ------- 0 0.0 3.0 98 612
r 0.4949 2 1 ack 40 ------- 0 3.0 0.0 70 698
r 0.49514 1 0 ack 40 ------- 0 3.0 0.0 64 681
r 0.495492 3 2 ack 40 ------- 0 3.0 0.0 77 717
r 0.495956 2 3 tcp 1040 ------- 0 0.0 3.0 88 592
r 0.496532 2 1 ack 40 ------- 0 3.0 0.0 71 701
r 0.496772 1 0 ack 40 ------- 0 3.0 0.0 65 684
r 0.496788 2 3 tcp 1040 ------- 0 0.0 3.0 89 596
r 0.497124 3 2 ack 40 ------- 0 3.0 0.0 78 720
r 0.498164 2 1 ack 40 ------- 0 3.0 0.0 72 704
r 0.498404 1 0 ack 40 ------- 0 3.0 0.0 66 687
r 0.49842 2 3 tcp 1040 ------- 0 0.0 3.0 90 597
r 0.498756 3 2 ack 40 ------- 0 3.0 0.0 79 723
r 0.498996 2 1 ack 40 ------- 0 3.0 0.0 73 706
r 0.499076 1 2 tcp 1040 ------- 0 0.0 3.0 104 624
r 0.499252 2 3 tcp 1040 ------- 0 0.0 3.0 91 600
r 0.499908 1 2 tcp 1040 ------- 0 0.0 3.0 105 627
r 0.500036 1 0 ack 40 ------- 0 3.0 0.0 67 689
r 0.500084 2 3 tcp 1040 ------- 0 0.0 3.0 92 601
r 0.500628 2 1 ack 40 ------- 0 3.0 0.0 74 708
r 0.50074 1 2 tcp 1040 ------- 0 0.0 3.0 106 628
r 0.500916 2 3 tcp 1040 ------- 0 0.0 3.0 93 604
r 0.501572 1 2 tcp 1040 ------- 0 0.0 3.0 107 630
r 0.501668 1 0 ack 40 ------- 0 3.0 0.0 68 692
r 0.501748 2 3 tcp 1040 ------- 0 0.0 3.0 94 605
r 0.50226 2 1 ack 40 ------- 0 3.0 0.0 75 711
r 0.502404 1 2 tcp 1040 ------- 0 0.0 3.0 108 631
r 0.50258 2 3 tcp 1040 ------- 0 0.0 3.0 95 607
r 0.503236 1 2 tcp 1040 ------- 0 0.0 3.0 109 634
r 0.5033 1 0 ack 40 ------- 0 3.0 0.0 69 695
r 0.503412 2 3 tcp 1040 ------- 0 0.0 3.0 96 608
r 0.503892 2 1 ack 40 ------- 0 3.0 0.0 76 714
r 0.504068 1 2 tcp 1040 ------- 0 0.0 3.0 110 635
r 0.504244 2 3 tcp 1040 ------- 0 0.0 3.0 97 611
r 0.50434 0 1 tcp 1040 ------- 0 0.0 3.0 127 729
r 0.5049 1 2 tcp 1040 ------- 0 0.0 3.0 111 638
r 0.504932 1 0 ack 40 ------- 0 3.0 0.0 70 698
r 0.505076 2 3 tcp 1040 ------- 0 0.0 3.0 98 612
r 0.505172 0 1 tcp 1040 ------- 0 0.0 3.0 128 730
r 0.505524 2 1 ack 40 ------- 0 3.0 0.0 77 717
r 0.505988 3 2 ack 40 ------- 0 3.0 0.0 79 736
r 0.506004 0 1 tcp 1040 ------- 0 0.0 3.0 129 733
r 0.506564 1 0 ack 40 ------- 0 3.0 0.0 71 701
r 0.50682 3 2 ack 40 ------- 0 3.0 0.0 79 740
r 0.506836 0 1 tcp 1040 ------- 0 0.0 3.0 130 734
r 0.507156 2 1 ack 40 ------- 0 3.0 0.0 78 720
r 0.507668 0 1 tcp 1040 ------- 0 0.0 3.0 131 738
d 0.507668 1 2 tcp 1040 ------- 0 0.0 3.0 131 738
r 0.508196 1 0 ack 40 ------- 0 3.0 0.0 72 704
r 0.508452 3 2 ack 40 ------- 0 3.0 0.0 79 744
r 0.5085 0 1 tcp 1040 ------- 0 0.0 3.0 132 739
d 0.5085 1 2 tcp 1040 ------- 0 0.0 3.0 132 739
r 0.508788 2 1 ack 40 ------- 0 3.0 0.0 79 723
r 0.509028 1 0 ack 40 ------- 0 3.0 0.0 73 706
r 0.509284 3 2 ack 40 ------- 0 3.0 0.0 79 746
r 0.509332 0 1 tcp 1040 ------- 0 0.0 3.0 133 742
d 0.509332 1 2 tcp 1040 ------- 0 0.0 3.0 133 742
r 0.509908 2 3 tcp 1040 ------- 0 0.0 3.0 104 624
r 0.510116 3 2 ack 40 ------- 0 3.0 0.0 79 750
r 0.510164 0 1 tcp 1040 ------- 0 0.0 3.0 134 743
d 0.510164 1 2 tcp 1040 ------- 0 0.0 3.0 134 743
r 0.51066 1 0 ack 40 ------- 0 3.0 0.0 74 708
r 0.51074 2 3 tcp 1040 ------- 0 0.0 3.0 105 627
r 0.510948 3 2 ack 40 ------- 0 3.0 0.0 79 752
r 0.510996 0 1 tcp 1040 ------- 0 0.0 3.0 135 748
d 0.510996 1 2 tcp 1040 ------- 0 0.0 3.0 135 748
r 0.511332 1 2 tcp 1040 ------- 0 0.0 3.0 119 653
r 0.511572 2 3 tcp 1040 ------- 0 0.0 3.0 106 628
r 0.51178 3 2 ack 40 ------- 0 3.0 0.0 79 756
r 0.511828 0 1 tcp 1040 ------- 0 0.0 3.0 136 749
d 0.511828 1 2 tcp 1040 ------- 0 0.0 3.0 136 749
r 0.512164 1 2 tcp 1040 ------- 0 0.0 3.0 120 654
r 0.512292 1 0 ack 40 ------- 0 3.0 0.0 75 711
r 0.512404 2 3 tcp 1040 ------- 0 0.0 3.0 107 630
r 0.512612 3 2 ack 40 ------- 0 3.0 0.0 79 758
r 0.51266 0 1 tcp 1040 ------- 0 0.0 3.0 137 754
r 0.512996 1 2 tcp 1040 ------- 0 0.0 3.0 121 656
r 0.513236 2 3 tcp 1040 ------- 0 0.0 3.0 108 631
r 0.513444 3 2 ack 40 ------- 0 3.0 0.0 79 762
r 0.513492 0 1 tcp 1040 ------- 0 0.0 3.0 138 755
r 0.513828 1 2 tcp 1040 ------- 0 0.0 3.0 122 657
r 0.513924 1 0 ack 40 ------- 0 3.0 0.0 76 714
r 0.514068 2 3 tcp 1040 ------- 0 0.0 3.0 109 634
r 0.514276 3 2 ack 40 ------- 0 3.0 0.0 79 764
r 0.514324 0 1 tcp 1040 ------- 0 0.0 3.0 139 760
r 0.51466 1 2 tcp 1040 ------- 0 0.0 3.0 123 660
r 0.5149 2 3 tcp 1040 ------- 0 0.0 3.0 110 635
r 0.515108 3 2 ack 40 ------- 0 3.0 0.0 79 768
r 0.515156 0 1 tcp 1040 ------- 0 0.0 3.0 140 761
r 0.515556 1 0 ack 40 ------- 0 3.0 0.0 77 717
r 0.515732 2 3 tcp 1040 ------- 0 0.0 3.0 111 638
r 0.515988 0 1 tcp 1040 ------- 0 0.0 3.0 141 766
r 0.51602 2 1 ack 40 ------- 0 3.0 0.0 79 736
r 0.51682 0 1 tcp 1040 ------- 0 0.0 3.0 142 767