r 0.030032 0 1 tcp 40 ------- 0 0.0 3.0 0 0
r 0.040832 1 2 tcp 40 ------- 0 0.0 3.0 0 0
r 0.050864 2 3 tcp 40 ------- 0 0.0 3.0 0 0
r 0.060896 3 2 ack 40 ------- 0 3.0 0.0 0 20
r 0.070928 2 1 ack 40 ------- 0 3.0 0.0 0 20
r 0.08096 1 0 ack 40 ------- 0 3.0 0.0 0 20
r 0.091792 0 1 tcp 1040 ------- 0 0.0 3.0 1 47
r 0.092624 0 1 tcp 1040 ------- 0 0.0 3.0 2 48
r 0.103346 1 2 tcp 1040 ------- 0 0.0 3.0 1 47
r 0.104178 1 2 tcp 1040 ------- 0 0.0 3.0 2 48
r 0.114178 2 3 tcp 1040 ------- 0 0.0 3.0 1 47
r 0.11501 2 3 tcp 1040 ------- 0 0.0 3.0 2 48
r 0.12421 3 2 ack 40 ------- 0 3.0 0.0 1 78
r 0.125042 3 2 ack 40 ------- 0 3.0 0.0 2 80
r 0.134242 2 1 ack 40 ------- 0 3.0 0.0 1 78
r 0.135074 2 1 ack 40 ------- 0 3.0 0.0 2 80
r 0.144274 1 0 ack 40 ------- 0 3.0 0.0 1 78
r 0.145106 1 0 ack 40 ------- 0 3.0 0.0 2 80
r 0.155106 0 1 tcp 1040 ------- 0 0.0 3.0 3 106
r 0.155938 0 1 tcp 1040 ------- 0 0.0 3.0 4 107
r 0.15677 0 1 tcp 1040 ------- 0 0.0 3.0 5 109
r 0.157602 0 1 tcp 1040 ------- 0 0.0 3.0 6 110
r 0.166203 1 2 tcp 1040 ------- 0 0.0 3.0 3 106
r 0.167835 1 2 tcp 1040 ------- 0 0.0 3.0 4 107
r 0.168667 1 2 tcp 1040 ------- 0 0.0 3.0 5 109
r 0.170299 1 2 tcp 1040 ------- 0 0.0 3.0 6 110
r 0.177035 2 3 tcp 1040 ------- 0 0.0 3.0 3 106
r 0.178667 2 3 tcp 1040 ------- 0 0.0 3.0 4 107
r 0.179499 2 3 tcp 1040 ------- 0 0.0 3.0 5 109
r 0.181131 2 3 tcp 1040 ------- 0 0.0 3.0 6 110
r 0.187067 3 2 ack 40 ------- 0 3.0 0.0 3 139
r 0.188699 3 2 ack 40 ------- 0 3.0 0.0 4 142
r 0.189531 3 2 ack 40 ------- 0 3.0 0.0 5 143
r 0.191163 3 2 ack 40 ------- 0 3.0 0.0 6 146
r 0.197099 2 1 ack 40 ------- 0 3.0 0.0 3 139
r 0.198731 2 1 ack 40 ------- 0 3.0 0.0 4 142
r 0.199563 2 1 ack 40 ------- 0 3.0 0.0 5 143
r 0.201195 2 1 ack 40 ------- 0 3.0 0.0 6 146
r 0.207131 1 0 ack 40 ------- 0 3.0 0.0 3 139
r 0.208763 1 0 ack 40 ------- 0 3.0 0.0 4 142
r 0.209595 1 0 ack 40 ------- 0 3.0 0.0 5 143
r 0.211227 1 0 ack 40 ------- 0 3.0 0.0 6 146
r 0.217963 0 1 tcp 1040 ------- 0 0.0 3.0 7 169
r 0.218795 0 1 tcp 1040 ------- 0 0.0 3.0 8 170
r 0.219627 0 1 tcp 1040 ------- 0 0.0 3.0 9 173
r 0.220459 0 1 tcp 1040 ------- 0 0.0 3.0 10 174
r 0.221291 0 1 tcp 1040 ------- 0 0.0 3.0 11 176
r 0.222123 0 1 tcp 1040 ------- 0 0.0 3.0 12 177
r 0.222955 0 1 tcp 1040 ------- 0 0.0 3.0 13 179
r 0.223787 0 1 tcp 1040 ------- 0 0.0 3.0 14 180
r 0.229061 1 2 tcp 1040 ------- 0 0.0 3.0 7 169
r 0.230693 1 2 tcp 1040 ------- 0 0.0 3.0 8 170
r 0.231525 1 2 tcp 1040 ------- 0 0.0 3.0 9 173
r 0.233157 1 2 tcp 1040 ------- 0 0.0 3.0 10 174
r 0.234789 1 2 tcp 1040 ------- 0 0.0 3.0 11 176
r 0.236421 1 2 tcp 1040 ------- 0 0.0 3.0 12 177
r 0.237253 1 2 tcp 1040 ------- 0 0.0 3.0 13 179
r 0.238885 1 2 tcp 1040 ------- 0 0.0 3.0 14 180
r 0.239893 2 3 tcp 1040 ------- 0 0.0 3.0 7 169
r 0.241525 2 3 tcp 1040 ------- 0 0.0 3.0 8 170
r 0.242357 2 3 tcp 1040 ------- 0 0.0 3.0 9 173
r 0.243989 2 3 tcp 1040 ------- 0 0.0 3.0 10 174
r 0.245621 2 3 tcp 1040 ------- 0 0.0 3.0 11 176
r 0.247253 2 3 tcp 1040 ------- 0 0.0 3.0 12 177
r 0.248085 2 3 tcp 1040 ------- 0 0.0 3.0 13 179
r 0.249717 2 3 tcp 1040 ------- 0 0.0 3.0 14 180
r 0.249925 3 2 ack 40 ------- 0 3.0 0.0 7 206
r 0.251557 3 2 ack 40 ------- 0 3.0 0.0 8 209
r 0.252389 3 2 ack 40 ------- 0 3.0 0.0 9 210
r 0.254021 3 2 ack 40 ------- 0 3.0 0.0 10 213
r 0.255653 3 2 ack 40 ------- 0 3.0 0.0 11 215
r 0.257285 3 2 ack 40 ------- 0 3.0 0.0 12 218
r 0.258117 3 2 ack 40 ------- 0 3.0 0.0 13 219
r 0.259749 3 2 ack 40 ------- 0 3.0 0.0 14 222
r 0.259957 2 1 ack 40 ------- 0 3.0 0.0 7 206
r 0.261589 2 1 ack 40 ------- 0 3.0 0.0 8 209
r 0.262421 2 1 ack 40 ------- 0 3.0 0.0 9 210
r 0.264053 2 1 ack 40 ------- 0 3.0 0.0 10 213
r 0.265685 2 1 ack 40 ------- 0 3.0 0.0 11 215
r 0.267317 2 1 ack 40 ------- 0 3.0 0.0 12 218
r 0.268149 2 1 ack 40 ------- 0 3.0 0.0 13 219
r 0.269781 2 1 ack 40 ------- 0 3.0 0.0 14 222
r 0.269989 1 0 ack 40 ------- 0 3.0 0.0 7 206
r 0.271621 1 0 ack 40 ------- 0 3.0 0.0 8 209
r 0.272453 1 0 ack 40 ------- 0 3.0 0.0 9 210
r 0.274085 1 0 ack 40 ------- 0 3.0 0.0 10 213
r 0.275717 1 0 ack 40 ------- 0 3.0 0.0 11 215
r 0.277349 1 0 ack 40 ------- 0 3.0 0.0 12 218
r 0.278181 1 0 ack 40 ------- 0 3.0 0.0 13 219
r 0.279813 1 0 ack 40 ------- 0 3.0 0.0 14 222
r 0.280821 0 1 tcp 1040 ------- 0 0.0 3.0 15 240
r 0.281653 0 1 tcp 1040 ------- 0 0.0 3.0 16 241
r 0.282485 0 1 tcp 1040 ------- 0 0.0 3.0 17 244
r 0.283317 0 1 tcp 1040 ------- 0 0.0 3.0 18 245
r 0.284149 0 1 tcp 1040 ------- 0 0.0 3.0 19 247
r 0.284981 0 1 tcp 1040 ------- 0 0.0 3.0 20 248
r 0.285813 0 1 tcp 1040 ------- 0 0.0 3.0 21 250
r 0.286645 0 1 tcp 1040 ------- 0 0.0 3.0 22 251
r 0.287477 0 1 tcp 1040 ------- 0 0.0 3.0 23 254
r 0.288309 0 1 tcp 1040 ------- 0 0.0 3.0 24 255
r 0.289141 0 1 tcp 1040 ------- 0 0.0 3.0 25 257
r 0.289973 0 1 tcp 1040 ------- 0 0.0 3.0 26 258
r 0.290805 0 1 tcp 1040 ------- 0 0.0 3.0 27 260
r 0.291637 0 1 tcp 1040 ------- 0 0.0 3.0 28 261
r 0.291918 1 2 tcp 1040 ------- 0 0.0 3.0 15 240
r 0.292469 0 1 tcp 1040 ------- 0 0.0 3.0 29 263
r 0.293301 0 1 tcp 1040 ------- 0 0.0 3.0 30 264
r 0.29355 1 2 tcp 1040 ------- 0 0.0 3.0 16 241
r 0.294382 1 2 tcp 1040 ------- 0 0.0 3.0 17 244
r 0.296014 1 2 tcp 1040 ------- 0 0.0 3.0 18 245
r 0.297646 1 2 tcp 1040 ------- 0 0.0 3.0 19 247
r 0.299278 1 2 tcp 1040 ------- 0 0.0 3.0 20 248
r 0.30011 1 2 tcp 1040 ------- 0 0.0 3.0 21 250
r 0.301742 1 2 tcp 1040 ------- 0 0.0 3.0 22 251
r 0.30275 2 3 tcp 1040 ------- 0 0.0 3.0 15 240
r 0.303374 1 2 tcp 1040 ------- 0 0.0 3.0 23 254
r 0.304382 2 3 tcp 1040 ------- 0 0.0 3.0 16 241
r 0.305006 1 2 tcp 1040 ------- 0 0.0 3.0 24 255
r 0.305214 2 3 tcp 1040 ------- 0 0.0 3.0 17 244
r 0.305838 1 2 tcp 1040 ------- 0 0.0 3.0 25 257
r 0.306846 2 3 tcp 1040 ------- 0 0.0 3.0 18 245
r 0.30747 1 2 tcp 1040 ------- 0 0.0 3.0 26 258
r 0.308478 2 3 tcp 1040 ------- 0 0.0 3.0 19 247
r 0.309102 1 2 tcp 1040 ------- 0 0.0 3.0 27 260
r 0.309934 1 2 tcp 1040 ------- 0 0.0 3.0 28 261
r 0.31011 2 3 tcp 1040 ------- 0 0.0 3.0 20 248
r 0.310942 2 3 tcp 1040 ------- 0 0.0 3.0 21 250
r 0.311566 1 2 tcp 1040 ------- 0 0.0 3.0 29 263
r 0.312574 2 3 tcp 1040 ------- 0 0.0 3.0 22 251
r 0.312782 3 2 ack 40 ------- 0 3.0 0.0 15 285
r 0.313198 1 2 tcp 1040 ------- 0 0.0 3.0 30 264
r 0.314206 2 3 tcp 1040 ------- 0 0.0 3.0 23 254
r 0.314414 3 2 ack 40 ------- 0 3.0 0.0 16 288
r 0.315246 3 2 ack 40 ------- 0 3.0 0.0 17 289
r 0.315838 2 3 tcp 1040 ------- 0 0.0 3.0 24 255
r 0.31667 2 3 tcp 1040 ------- 0 0.0 3.0 25 257
r 0.316878 3 2 ack 40 ------- 0 3.0 0.0 18 292
r 0.318302 2 3 tcp 1040 ------- 0 0.0 3.0 26 258
r 0.31851 3 2 ack 40 ------- 0 3.0 0.0 19 294
r 0.319934 2 3 tcp 1040 ------- 0 0.0 3.0 27 260
r 0.320142 3 2 ack 40 ------- 0 3.0 0.0 20 297
r 0.320766 2 3 tcp 1040 ------- 0 0.0 3.0 28 261
r 0.320974 3 2 ack 40 ------- 0 3.0 0.0 21 298
r 0.322398 2 3 tcp 1040 ------- 0 0.0 3.0 29 263
r 0.322606 3 2 ack 40 ------- 0 3.0 0.0 22 301
r 0.322814 2 1 ack 40 ------- 0 3.0 0.0 15 285
r 0.32403 2 3 tcp 1040 ------- 0 0.0 3.0 30 264
r 0.324238 3 2 ack 40 ------- 0 3.0 0.0 23 303
r 0.324446 2 1 ack 40 ------- 0 3.0 0.0 16 288
r 0.325278 2 1 ack 40 ------- 0 3.0 0.0 17 289
r 0.32587 3 2 ack 40 ------- 0 3.0 0.0 24 306
r 0.326702 3 2 ack 40 ------- 0 3.0 0.0 25 307
r 0.32691 2 1 ack 40 ------- 0 3.0 0.0 18 292
r 0.328334 3 2 ack 40 ------- 0 3.0 0.0 26 310
r 0.328542 2 1 ack 40 ------- 0 3.0 0.0 19 294
r 0.329966 3 2 ack 40 ------- 0 3.0 0.0 27 312
r 0.330174 2 1 ack 40 ------- 0 3.0 0.0 20 297
r 0.330798 3 2 ack 40 ------- 0 3.0 0.0 28 314
r 0.331006 2 1 ack 40 ------- 0 3.0 0.0 21 298
r 0.33243 3 2 ack 40 ------- 0 3.0 0.0 29 316
r 0.332638 2 1 ack 40 ------- 0 3.0 0.0 22 301
r 0.332846 1 0 ack 40 ------- 0 3.0 0.0 15 285
r 0.334062 3 2 ack 40 ------- 0 3.0 0.0 30 319
r 0.33427 2 1 ack 40 ------- 0 3.0 0.0 23 303
r 0.334478 1 0 ack 40 ------- 0 3.0 0.0 16 288
r 0.33531 1 0 ack 40 ------- 0 3.0 0.0 17 289
r 0.335902 2 1 ack 40 ------- 0 3.0 0.0 24 306
r 0.336734 2 1 ack 40 ------- 0 3.0 0.0 25 307
r 0.336942 1 0 ack 40 ------- 0 3.0 0.0 18 292
r 0.338366 2 1 ack 40 ------- 0 3.0 0.0 26 310
r 0.338574 1 0 ack 40 ------- 0 3.0 0.0 19 294
r 0.339998 2 1 ack 40 ------- 0 3.0 0.0 27 312
r 0.340206 1 0 ack 40 ------- 0 3.0 0.0 20 297
r 0.34083 2 1 ack 40 ------- 0 3.0 0.0 28 314
r 0.341038 1 0 ack 40 ------- 0 3.0 0.0 21 298
r 0.342462 2 1 ack 40 ------- 0 3.0 0.0 29 316
r 0.34267 1 0 ack 40 ------- 0 3.0 0.0 22 301
r 0.343678 0 1 tcp 1040 ------- 0 0.0 3.0 31 327
r 0.344094 2 1 ack 40 ------- 0 3.0 0.0 30 319
r 0.344302 1 0 ack 40 ------- 0 3.0 0.0 23 303
r 0.34451 0 1 tcp 1040 ------- 0 0.0 3.0 32 328
r 0.345342 0 1 tcp 1040 ------- 0 0.0 3.0 33 331
r 0.345934 1 0 ack 40 ------- 0 3.0 0.0 24 306
r 0.346174 0 1 tcp 1040 ------- 0 0.0 3.0 34 332
r 0.346766 1 0 ack 40 ------- 0 3.0 0.0 25 307
r 0.347006 0 1 tcp 1040 ------- 0 0.0 3.0 35 334
r 0.347838 0 1 tcp 1040 ------- 0 0.0 3.0 36 335
r 0.348398 1 0 ack 40 ------- 0 3.0 0.0 26 310
r 0.34867 0 1 tcp 1040 ------- 0 0.0 3.0 37 337
r 0.349502 0 1 tcp 1040 ------- 0 0.0 3.0 38 338
r 0.35003 1 0 ack 40 ------- 0 3.0 0.0 27 312
r 0.350334 0 1 tcp 1040 ------- 0 0.0 3.0 39 341
r 0.350862 1 0 ack 40 ------- 0 3.0 0.0 28 314
r 0.351166 0 1 tcp 1040 ------- 0 0.0 3.0 40 342
r 0.351998 0 1 tcp 1040 ------- 0 0.0 3.0 41 344
r 0.352494 1 0 ack 40 ------- 0 3.0 0.0 29 316
r 0.35283 0 1 tcp 1040 ------- 0 0.0 3.0 42 345
r 0.353662 0 1 tcp 1040 ------- 0 0.0 3.0 43 347
r 0.354126 1 0 ack 40 ------- 0 3.0 0.0 30 319
r 0.354494 0 1 tcp 1040 ------- 0 0.0 3.0 44 348
r 0.354775 1 2 tcp 1040 ------- 0 0.0 3.0 31 327
r 0.355326 0 1 tcp 1040 ------- 0 0.0 3.0 45 350
r 0.356158 0 1 tcp 1040 ------- 0 0.0 3.0 46 351
r 0.356407 1 2 tcp 1040 ------- 0 0.0 3.0 32 328
r 0.35699 0 1 tcp 1040 ------- 0 0.0 3.0 47 354
r 0.357239 1 2 tcp 1040 ------- 0 0.0 3.0 33 331
r 0.357822 0 1 tcp 1040 ------- 0 0.0 3.0 48 355
r 0.358654 0 1 tcp 1040 ------- 0 0.0 3.0 49 357
r 0.358871 1 2 tcp 1040 ------- 0 0.0 3.0 34 332
r 0.359486 0 1 tcp 1040 ------- 0 0.0 3.0 50 358
r 0.360318 0 1 tcp 1040 ------- 0 0.0 3.0 51 360
r 0.360503 1 2 tcp 1040 ------- 0 0.0 3.0 35 334
r 0.36115 0 1 tcp 1040 ------- 0 0.0 3.0 52 361
r 0.361982 0 1 tcp 1040 ------- 0 0.0 3.0 53 363
r 0.362135 1 2 tcp 1040 ------- 0 0.0 3.0 36 335
r 0.362814 0 1 tcp 1040 ------- 0 0.0 3.0 54 364
r 0.362967 1 2 tcp 1040 ------- 0 0.0 3.0 37 337
r 0.363646 0 1 tcp 1040 ------- 0 0.0 3.0 55 367
r 0.364478 0 1 tcp 1040 ------- 0 0.0 3.0 56 368
r 0.364599 1 2 tcp 1040 ------- 0 0.0 3.0 38 338
r 0.36531 0 1 tcp 1040 ------- 0 0.0 3.0 57 369
r 0.365607 2 3 tcp 1040 ------- 0 0.0 3.0 31 327
r 0.366142 0 1 tcp 1040 ------- 0 0.0 3.0 58 370
r 0.366231 1 2 tcp 1040 ------- 0 0.0 3.0 39 341
r 0.366974 0 1 tcp 1040 ------- 0 0.0 3.0 59 373
r 0.367239 2 3 tcp 1040 ------- 0 0.0 3.0 32 328
r 0.367806 0 1 tcp 1040 ------- 0 0.0 3.0 60 374
r 0.367863 1 2 tcp 1040 ------- 0 0.0 3.0 40 342
r 0.368071 2 3 tcp 1040 ------- 0 0.0 3.0 33 331
r 0.368638 0 1 tcp 1040 ------- 0 0.0 3.0 61 376
r 0.368695 1 2 tcp 1040 ------- 0 0.0 3.0 41 344
r 0.36947 0 1 tcp 1040 ------- 0 0.0 3.0 62 377
r 0.369703 2 3 tcp 1040 ------- 0 0.0 3.0 34 332
r 0.370327 1 2 tcp 1040 ------- 0 0.0 3.0 42 345
r 0.371335 2 3 tcp 1040 ------- 0 0.0 3.0 35 334
r 0.371959 1 2 tcp 1040 ------- 0 0.0 3.0 43 347
r 0.372791 1 2 tcp 1040 ------- 0 0.0 3.0 44 348
r 0.372967 2 3 tcp 1040 ------- 0 0.0 3.0 36 335
r 0.373799 2 3 tcp 1040 ------- 0 0.0 3.0 37 337
r 0.374423 1 2 tcp 1040 ------- 0 0.0 3.0 45 350
r 0.375431 2 3 tcp 1040 ------- 0 0.0 3.0 38 338
r 0.375639 3 2 ack 40 ------- 0 3.0 0.0 31 388
r 0.376055 1 2 tcp 1040 ------- 0 0.0 3.0 46 351
r 0.377063 2 3 tcp 1040 ------- 0 0.0 3.0 39 341
r 0.377271 3 2 ack 40 ------- 0 3.0 0.0 32 391
r 0.377687 1 2 tcp 1040 ------- 0 0.0 3.0 47 354
r 0.378103 3 2 ack 40 ------- 0 3.0 0.0 33 392
r 0.378519 1 2 tcp 1040 ------- 0 0.0 3.0 48 355
r 0.378695 2 3 tcp 1040 ------- 0 0.0 3.0 40 342
r 0.379527 2 3 tcp 1040 ------- 0 0.0 3.0 41 344
r 0.379735 3 2 ack 40 ------- 0 3.0 0.0 34 395
r 0.380151 1 2 tcp 1040 ------- 0 0.0 3.0 49 357
r 0.381159 2 3 tcp 1040 ------- 0 0.0 3.0 42 345
r 0.381367 3 2 ack 40 ------- 0 3.0 0.0 35 397
r 0.381783 1 2 tcp 1040 ------- 0 0.0 3.0 50 358
r 0.382791 2 3 tcp 1040 ------- 0 0.0 3.0 43 347
r 0.382999 3 2 ack 40 ------- 0 3.0 0.0 36 400
r 0.383415 1 2 tcp 1040 ------- 0 0.0 3.0 51 360
r 0.383623 2 3 tcp 1040 ------- 0 0.0 3.0 44 348
r 0.383831 3 2 ack 40 ------- 0 3.0 0.0 37 401
r 0.384247 1 2 tcp 1040 ------- 0 0.0 3.0 52 361
r 0.385255 2 3 tcp 1040 ------- 0 0.0 3.0 45 350
r 0.385463 3 2 ack 40 ------- 0 3.0 0.0 38 404
r 0.385671 2 1 ack 40 ------- 0 3.0 0.0 31 388
r 0.385879 1 2 tcp 1040 ------- 0 0.0 3.0 53 363
r 0.386887 2 3 tcp 1040 ------- 0 0.0 3.0 46 351
r 0.387095 3 2 ack 40 ------- 0 3.0 0.0 39 406
r 0.387303 2 1 ack 40 ------- 0 3.0 0.0 32 391
r 0.387511 1 2 tcp 1040 ------- 0 0.0 3.0 54 364
r 0.388135 2 1 ack 40 ------- 0 3.0 0.0 33 392
r 0.388343 1 2 tcp 1040 ------- 0 0.0 3.0 55 367
r 0.388519 2 3 tcp 1040 ------- 0 0.0 3.0 47 354
r 0.388727 3 2 ack 40 ------- 0 3.0 0.0 40 409
r 0.389351 2 3 tcp 1040 ------- 0 0.0 3.0 48 355
r 0.389559 3 2 ack 40 ------- 0 3.0 0.0 41 410
r 0.389767 2 1 ack 40 ------- 0 3.0 0.0 34 395
r 0.389975 1 2 tcp 1040 ------- 0 0.0 3.0 56 368
r 0.390983 2 3 tcp 1040 ------- 0 0.0 3.0 49 357
r 0.391191 3 2 ack 40 ------- 0 3.0 0.0 42 413
r 0.391399 2 1 ack 40 ------- 0 3.0 0.0 35 397
r 0.391607 1 2 tcp 1040 ------- 0 0.0 3.0 57 369
r 0.392615 2 3 tcp 1040 ------- 0 0.0 3.0 50 358
r 0.392823 3 2 ack 40 ------- 0 3.0 0.0 43 415
r 0.393031 2 1 ack 40 ------- 0 3.0 0.0 36 400
r 0.393239 1 2 tcp 1040 ------- 0 0.0 3.0 58 370
r 0.393655 3 2 ack 40 ------- 0 3.0 0.0 44 417
r 0.393863 2 1 ack 40 ------- 0 3.0 0.0 37 401
r 0.394071 1 2 tcp 1040 ------- 0 0.0 3.0 59 373
r 0.394247 2 3 tcp 1040 ------- 0 0.0 3.0 51 360
r 0.395079 2 3 tcp 1040 ------- 0 0.0 3.0 52 361
r 0.395287 3 2 ack 40 ------- 0 3.0 0.0 45 419
r 0.395495 2 1 ack 40 ------- 0 3.0 0.0 38 404
r 0.395703 1 0 ack 40 ------- 0 3.0 0.0 31 388
r 0.395703 1 2 tcp 1040 ------- 0 0.0 3.0 60 374
r 0.396711 2 3 tcp 1040 ------- 0 0.0 3.0 53 363
r 0.396919 3 2 ack 40 ------- 0 3.0 0.0 46 422
r 0.397127 2 1 ack 40 ------- 0 3.0 0.0 39 406
r 0.397335 1 0 ack 40 ------- 0 3.0 0.0 32 391
r 0.397335 1 2 tcp 1040 ------- 0 0.0 3.0 61 376
r 0.398167 1 0 ack 40 ------- 0 3.0 0.0 33 392
r 0.398343 2 3 tcp 1040 ------- 0 0.0 3.0 54 364
r 0.398551 3 2 ack 40 ------- 0 3.0 0.0 47 424
r 0.398759 2 1 ack 40 ------- 0 3.0 0.0 40 409
r 0.398967 1 2 tcp 1040 ------- 0 0.0 3.0 62 377
r 0.399175 2 3 tcp 1040 ------- 0 0.0 3.0 55 367
r 0.399383 3 2 ack 40 ------- 0 3.0 0.0 48 426
r 0.399591 2 1 ack 40 ------- 0 3.0 0.0 41 410
r 0.399799 1 0 ack 40 ------- 0 3.0 0.0 34 395
r 0.400807 2 3 tcp 1040 ------- 0 0.0 3.0 56 368
r 0.401015 3 2 ack 40 ------- 0 3.0 0.0 49 428
r 0.401223 2 1 ack 40 ------- 0 3.0 0.0 42 413
r 0.401431 1 0 ack 40 ------- 0 3.0 0.0 35 397
r 0.402439 2 3 tcp 1040 ------- 0 0.0 3.0 57 369
r 0.402647 3 2 ack 40 ------- 0 3.0 0.0 50 431
r 0.402855 2 1 ack 40 ------- 0 3.0 0.0 43 415
r 0.403063 1 0 ack 40 ------- 0 3.0 0.0 36 400
r 0.403687 2 1 ack 40 ------- 0 3.0 0.0 44 417
r 0.403895 1 0 ack 40 ------- 0 3.0 0.0 37 401
r 0.404071 2 3 tcp 1040 ------- 0 0.0 3.0 58 370
r 0.404279 3 2 ack 40 ------- 0 3.0 0.0 51 433
r 0.404903 2 3 tcp 1040 ------- 0 0.0 3.0 59 373
r 0.405111 3 2 ack 40 ------- 0 3.0 0.0 52 435
r 0.405319 2 1 ack 40 ------- 0 3.0 0.0 45 419
r 0.405527 1 0 ack 40 ------- 0 3.0 0.0 38 404
r 0.406535 0 1 tcp 1040 ------- 0 0.0 3.0 63 436
r 0.406535 2 3 tcp 1040 ------- 0 0.0 3.0 60 374
r 0.406743 3 2 ack 40 ------- 0 3.0 0.0 53 439
r 0.406951 2 1 ack 40 ------- 0 3.0 0.0 46 422
r 0.407159 1 0 ack 40 ------- 0 3.0 0.0 39 406
r 0.407367 0 1 tcp 1040 ------- 0 0.0 3.0 64 437
r 0.408167 2 3 tcp 1040 ------- 0 0.0 3.0 61 376
r 0.408199 0 1 tcp 1040 ------- 0 0.0 3.0 65 441
r 0.408375 3 2 ack 40 ------- 0 3.0 0.0 54 446
r 0.408583 2 1 ack 40 ------- 0 3.0 0.0 47 424
r 0.408791 1 0 ack 40 ------- 0 3.0 0.0 40 409
r 0.409031 0 1 tcp 1040 ------- 0 0.0 3.0 66 442
r 0.409207 3 2 ack 40 ------- 0 3.0 0.0 55 448
r 0.409415 2 1 ack 40 ------- 0 3.0 0.0 48 426
r 0.409623 1 0 ack 40 ------- 0 3.0 0.0 41 410
r 0.409799 2 3 tcp 1040 ------- 0 0.0 3.0 62 377
r 0.409863 0 1 tcp 1040 ------- 0 0.0 3.0 67 444
r 0.410695 0 1 tcp 1040 ------- 0 0.0 3.0 68 445
r 0.410839 3 2 ack 40 ------- 0 3.0 0.0 56 452
r 0.411047 2 1 ack 40 ------- 0 3.0 0.0 49 428
r 0.411255 1 0 ack 40 ------- 0 3.0 0.0 42 413
r 0.411527 0 1 tcp 1040 ------- 0 0.0 3.0 69 449
r 0.412359 0 1 tcp 1040 ------- 0 0.0 3.0 70 450
r 0.412471 3 2 ack 40 ------- 0 3.0 0.0 57 456
r 0.412679 2 1 ack 40 ------- 0 3.0 0.0 50 431
r 0.412887 1 0 ack 40 ------- 0 3.0 0.0 43 415
r 0.413191 0 1 tcp 1040 ------- 0 0.0 3.0 71 454
r 0.413719 1 0 ack 40 ------- 0 3.0 0.0 44 417
r 0.414023 0 1 tcp 1040 ------- 0 0.0 3.0 72 455
r 0.414103 3 2 ack 40 ------- 0 3.0 0.0 58 463
r 0.414311 2 1 ack 40 ------- 0 3.0 0.0 51 433
r 0.414855 0 1 tcp 1040 ------- 0 0.0 3.0 73 458
r 0.414935 3 2 ack 40 ------- 0 3.0 0.0 59 465
r 0.415143 2 1 ack 40 ------- 0 3.0 0.0 52 435
r 0.415351 1 0 ack 40 ------- 0 3.0 0.0 45 419
r 0.415687 0 1 tcp 1040 ------- 0 0.0 3.0 74 459
r 0.416519 0 1 tcp 1040 ------- 0 0.0 3.0 75 461
r 0.416567 3 2 ack 40 ------- 0 3.0 0.0 60 469
r 0.416775 2 1 ack 40 ------- 0 3.0 0.0 53 439
r 0.416983 1 0 ack 40 ------- 0 3.0 0.0 46 422
r 0.417351 0 1 tcp 1040 ------- 0 0.0 3.0 76 462
r 0.418183 0 1 tcp 1040 ------- 0 0.0 3.0 77 466
r 0.418199 3 2 ack 40 ------- 0 3.0 0.0 61 473
r 0.418407 2 1 ack 40 ------- 0 3.0 0.0 54 446
r 0.418615 1 0 ack 40 ------- 0 3.0 0.0 47 424
r 0.419015 0 1 tcp 1040 ------- 0 0.0 3.0 78 467
r 0.419239 2 1 ack 40 ------- 0 3.0 0.0 55 448
r 0.419447 1 0 ack 40 ------- 0 3.0 0.0 48 426
r 0.419831 3 2 ack 40 ------- 0 3.0 0.0 62 480
r 0.419847 0 1 tcp 1040 ------- 0 0.0 3.0 79 471
r 0.420679 0 1 tcp 1040 ------- 0 0.0 3.0 80 472
r 0.420871 2 1 ack 40 ------- 0 3.0 0.0 56 452
r 0.421079 1 0 ack 40 ------- 0 3.0 0.0 49 428
r 0.421511 0 1 tcp 1040 ------- 0 0.0 3.0 81 475
r 0.422343 0 1 tcp 1040 ------- 0 0.0 3.0 82 476
r 0.422503 2 1 ack 40 ------- 0 3.0 0.0 57 456
r 0.422711 1 0 ack 40 ------- 0 3.0 0.0 50 431
r 0.423175 0 1 tcp 1040 ------- 0 0.0 3.0 83 478
r 0.424007 0 1 tcp 1040 ------- 0 0.0 3.0 84 479
r 0.424135 2 1 ack 40 ------- 0 3.0 0.0 58 463
r 0.424343 1 0 ack 40 ------- 0 3.0 0.0 51 433
r 0.424839 0 1 tcp 1040 ------- 0 0.0 3.0 85 482
r 0.424967 2 1 ack 40 ------- 0 3.0 0.0 59 465
r 0.425175 1 0 ack 40 ------- 0 3.0 0.0 52 435
r 0.425399 1 2 tcp 1040 ------- 0 0.0 3.0 63 436
r 0.425671 0 1 tcp 1040 ------- 0 0.0 3.0 86 483
r 0.426503 0 1 tcp 1040 ------- 0 0.0 3.0 87 486
r 0.426599 2 1 ack 40 ------- 0 3.0 0.0 60 469
r 0.426807 1 0 ack 40 ------- 0 3.0 0.0 53 439
r 0.427031 1 2 tcp 1040 ------- 0 0.0 3.0 64 437
r 0.427335 0 1 tcp 1040 ------- 0 0.0 3.0 88 487
r 0.427863 1 2 tcp 1040 ------- 0 0.0 3.0 65 441
r 0.428167 0 1 tcp 1040 ------- 0 0.0 3.0 89 488
r 0.428231 2 1 ack 40 ------- 0 3.0 0.0 61 473
r 0.428439 1 0 ack 40 ------- 0 3.0 0.0 54 446
r 0.428999 0 1 tcp 1040 ------- 0 0.0 3.0 90 489
r 0.429271 1 0 ack 40 ------- 0 3.0 0.0 55 448
r 0.429495 1 2 tcp 1040 ------- 0 0.0 3.0 66 442
r 0.429831 0 1 tcp 1040 ------- 0 0.0 3.0 91 492
r 0.429863 2 1 ack 40 ------- 0 3.0 0.0 62 480
r 0.430663 0 1 tcp 1040 ------- 0 0.0 3.0 92 493
r 0.430903 1 0 ack 40 ------- 0 3.0 0.0 56 452
r 0.431127 1 2 tcp 1040 ------- 0 0.0 3.0 67 444
r 0.431495 0 1 tcp 1040 ------- 0 0.0 3.0 93 495
r 0.432327 0 1 tcp 1040 ------- 0 0.0 3.0 94 496
r 0.432535 1 0 ack 40 ------- 0 3.0 0.0 57 456
r 0.432759 1 2 tcp 1040 ------- 0 0.0 3.0 68 445
r 0.433159 0 1 tcp 1040 ------- 0 0.0 3.0 95 499
r 0.433591 1 2 tcp 1040 ------- 0 0.0 3.0 69 449
r 0.433991 0 1 tcp 1040 ------- 0 0.0 3.0 96 500
r 0.434167 1 0 ack 40 ------- 0 3.0 0.0 58 463
r 0.434823 0 1 tcp 1040 ------- 0 0.0 3.0 97 501
r 0.434999 1 0 ack 40 ------- 0 3.0 0.0 59 465
r 0.435223 1 2 tcp 1040 ------- 0 0.0 3.0 70 450
r 0.435655 0 1 tcp 1040 ------- 0 0.0 3.0 98 502
r 0.436231 2 3 tcp 1040 ------- 0 0.0 3.0 63 436
r 0.436487 0 1 tcp 1040 ------- 0 0.0 3.0 99 505
r 0.436631 1 0 ack 40 ------- 0 3.0 0.0 60 469
r 0.436855 1 2 tcp 1040 ------- 0 0.0 3.0 71 454
r 0.437319 0 1 tcp 1040 ------- 0 0.0 3.0 100 506
r 0.437863 2 3 tcp 1040 ------- 0 0.0 3.0 64 437
r 0.438151 0 1 tcp 1040 ------- 0 0.0 3.0 101 508
r 0.438263 1 0 ack 40 ------- 0 3.0 0.0 61 473
r 0.438487 1 2 tcp 1040 ------- 0 0.0 3.0 72 455
r 0.438695 2 3 tcp 1040 ------- 0 0.0 3.0 65 441
r 0.438983 0 1 tcp 1040 ------- 0 0.0 3.0 102 509
r 0.439319 1 2 tcp 1040 ------- 0 0.0 3.0 73 458
r 0.439815 0 1 tcp 1040 ------- 0 0.0 3.0 103 512
r 0.439895 1 0 ack 40 ------- 0 3.0 0.0 62 480
r 0.440327 2 3 tcp 1040 ------- 0 0.0 3.0 66 442
r 0.440647 0 1 tcp 1040 ------- 0 0.0 3.0 104 513
r 0.440951 1 2 tcp 1040 ------- 0 0.0 3.0 74 459
r 0.441479 0 1 tcp 1040 ------- 0 0.0 3.0 105 514
r 0.441959 2 3 tcp 1040 ------- 0 0.0 3.0 67 444
r 0.442311 0 1 tcp 1040 ------- 0 0.0 3.0 106 515
r 0.442583 1 2 tcp 1040 ------- 0 0.0 3.0 75 461
r 0.443143 0 1 tcp 1040 ------- 0 0.0 3.0 107 518
r 0.443415 1 2 tcp 1040 ------- 0 0.0 3.0 76 462
r 0.443591 2 3 tcp 1040 ------- 0 0.0 3.0 68 445
r 0.443975 0 1 tcp 1040 ------- 0 0.0 3.0 108 519
r 0.444423 2 3 tcp 1040 ------- 0 0.0 3.0 69 449
r 0.444807 0 1 tcp 1040 ------- 0 0.0 3.0 109 521
r 0.445047 1 2 tcp 1040 ------- 0 0.0 3.0 77 466
r 0.445639 0 1 tcp 1040 ------- 0 0.0 3.0 110 522
r 0.446055 2 3 tcp 1040 ------- 0 0.0 3.0 70 450
r 0.446263 3 2 ack 40 ------- 0 3.0 0.0 63 540
r 0.446471 0 1 tcp 1040 ------- 0 0.0 3.0 111 524
r 0.446679 1 2 tcp 1040 ------- 0 0.0 3.0 78 467
r 0.447303 0 1 tcp 1040 ------- 0 0.0 3.0 112 525
r 0.447687 2 3 tcp 1040 ------- 0 0.0 3.0 71 454
r 0.447895 3 2 ack 40 ------- 0 3.0 0.0 64 544
r 0.448135 0 1 tcp 1040 ------- 0 0.0 3.0 113 527
r 0.448311 1 2 tcp 1040 ------- 0 0.0 3.0 79 471
r 0.448727 3 2 ack 40 ------- 0 3.0 0.0 65 548
r 0.448967 0 1 tcp 1040 ------- 0 0.0 3.0 114 528
r 0.449143 1 2 tcp 1040 ------- 0 0.0 3.0 80 472
r 0.449319 2 3 tcp 1040 ------- 0 0.0 3.0 72 455
r 0.449799 0 1 tcp 1040 ------- 0 0.0 3.0 115 531
r 0.450151 2 3 tcp 1040 ------- 0 0.0 3.0 73 458
r 0.450359 3 2 ack 40 ------- 0 3.0 0.0 66 553
r 0.450631 0 1 tcp 1040 ------- 0 0.0 3.0 116 532
r 0.450775 1 2 tcp 1040 ------- 0 0.0 3.0 81 475
r 0.451463 0 1 tcp 1040 ------- 0 0.0 3.0 117 534
r 0.451783 2 3 tcp 1040 ------- 0 0.0 3.0 74 459
r 0.451991 3 2 ack 40 ------- 0 3.0 0.0 67 555
r 0.452295 0 1 tcp 1040 ------- 0 0.0 3.0 118 535
r 0.452407 1 2 tcp 1040 ------- 0 0.0 3.0 82 476
r 0.453127 0 1 tcp 1040 ------- 0 0.0 3.0 119 537
r 0.453415 2 3 tcp 1040 ------- 0 0.0 3.0 75 461
r 0.453623 3 2 ack 40 ------- 0 3.0 0.0 68 557
r 0.453959 0 1 tcp 1040 ------- 0 0.0 3.0 120 538
r 0.454039 1 2 tcp 1040 ------- 0 0.0 3.0 83 478
r 0.454247 2 3 tcp 1040 ------- 0 0.0 3.0 76 462
r 0.454455 3 2 ack 40 ------- 0 3.0 0.0 69 559
r 0.454791 0 1 tcp 1040 ------- 0 0.0 3.0 121 541
r 0.454871 1 2 tcp 1040 ------- 0 0.0 3.0 84 479
r 0.455623 0 1 tcp 1040 ------- 0 0.0 3.0 122 542
r 0.455879 2 3 tcp 1040 ------- 0 0.0 3.0 77 466
r 0.456087 3 2 ack 40 ------- 0 3.0 0.0 70 562
r 0.456295 2 1 ack 40 ------- 0 3.0 0.0 63 540
r 0.456455 0 1 tcp 1040 ------- 0 0.0 3.0 123 546
r 0.456503 1 2 tcp 1040 ------- 0 0.0 3.0 85 482
r 0.457287 0 1 tcp 1040 ------- 0 0.0 3.0 124 547
r 0.457511 2 3 tcp 1040 ------- 0 0.0 3.0 78 467
r 0.457719 3 2 ack 40 ------- 0 3.0 0.0 71 564
r 0.457927 2 1 ack 40 ------- 0 3.0 0.0 64 544
r 0.458119 0 1 tcp 1040 ------- 0 0.0 3.0 125 550
r 0.458135 1 2 tcp 1040 ------- 0 0.0 3.0 86 483
r 0.458759 2 1 ack 40 ------- 0 3.0 0.0 65 548
r 0.458951 0 1 tcp 1040 ------- 0 0.0 3.0 126 551
r 0.458967 1 2 tcp 1040 ------- 0 0.0 3.0 87 486
r 0.459143 2 3 tcp 1040 ------- 0 0.0 3.0 79 471
r 0.459351 3 2 ack 40 ------- 0 3.0 0.0 72 566
r 0.459975 2 3 tcp 1040 ------- 0 0.0 3.0 80 472
r 0.460183 3 2 ack 40 ------- 0 3.0 0.0 73 568
r 0.460391 2 1 ack 40 ------- 0 3.0 0.0 66 553
r 0.460599 1 2 tcp 1040 ------- 0 0.0 3.0 88 487
r 0.461607 2 3 tcp 1040 ------- 0 0.0 3.0 81 475
r 0.461815 3 2 ack 40 ------- 0 3.0 0.0 74 571
r 0.462023 2 1 ack 40 ------- 0 3.0 0.0 67 555
r 0.462231 1 2 tcp 1040 ------- 0 0.0 3.0 89 488
r 0.463239 2 3 tcp 1040 ------- 0 0.0 3.0 82 476
r 0.463447 3 2 ack 40 ------- 0 3.0 0.0 75 573
r 0.463655 2 1 ack 40 ------- 0 3.0 0.0 68 557
r 0.463863 1 2 tcp 1040 ------- 0 0.0 3.0 90 489
r 0.464279 3 2 ack 40 ------- 0 3.0 0.0 76 575
r 0.464487 2 1 ack 40 ------- 0 3.0 0.0 69 559
r 0.464695 1 2 tcp 1040 ------- 0 0.0 3.0 91 492
r 0.464871 2 3 tcp 1040 ------- 0 0.0 3.0 83 478
r 0.465703 2 3 tcp 1040 ------- 0 0.0 3.0 84 479
r 0.465911 3 2 ack 40 ------- 0 3.0 0.0 77 577
r 0.466119 2 1 ack 40 ------- 0 3.0 0.0 70 562
r 0.466327 1 0 ack 40 ------- 0 3.0 0.0 63 540
r 0.466327 1 2 tcp 1040 ------- 0 0.0 3.0 92 493
r 0.467335 2 3 tcp 1040 ------- 0 0.0 3.0 85 482
r 0.467543 3 2 ack 40 ------- 0 3.0 0.0 78 580
r 0.467751 2 1 ack 40 ------- 0 3.0 0.0 71 564
r 0.467959 1 0 ack 40 ------- 0 3.0 0.0 64 544
r 0.467959 1 2 tcp 1040 ------- 0 0.0 3.0 93 495
r 0.468791 1 0 ack 40 ------- 0 3.0 0.0 65 548
r 0.468967 2 3 tcp 1040 ------- 0 0.0 3.0 86 483
r 0.469175 3 2 ack 40 ------- 0 3.0 0.0 79 582
r 0.469383 2 1 ack 40 ------- 0 3.0 0.0 72 566
r 0.469591 1 2 tcp 1040 ------- 0 0.0 3.0 94 496
r 0.469799 2 3 tcp 1040 ------- 0 0.0 3.0 87 486
r 0.470007 3 2 ack 40 ------- 0 3.0 0.0 80 584
r 0.470215 2 1 ack 40 ------- 0 3.0 0.0 73 568
r 0.470423 1 0 ack 40 ------- 0 3.0 0.0 66 553
r 0.470423 1 2 tcp 1040 ------- 0 0.0 3.0 95 499
r 0.471431 2 3 tcp 1040 ------- 0 0.0 3.0 88 487
r 0.471639 3 2 ack 40 ------- 0 3.0 0.0 81 586
r 0.471847 2 1 ack 40 ------- 0 3.0 0.0 74 571
r 0.472055 1 0 ack 40 ------- 0 3.0 0.0 67 555
r 0.472055 1 2 tcp 1040 ------- 0 0.0 3.0 96 500
r 0.473063 2 3 tcp 1040 ------- 0 0.0 3.0 89 488
r 0.473271 3 2 ack 40 ------- 0 3.0 0.0 82 589
r 0.473479 2 1 ack 40 ------- 0 3.0 0.0 75 573
r 0.473687 1 0 ack 40 ------- 0 3.0 0.0 68 557
r 0.473687 1 2 tcp 1040 ------- 0 0.0 3.0 97 501
r 0.474311 2 1 ack 40 ------- 0 3.0 0.0 76 575
r 0.474519 1 0 ack 40 ------- 0 3.0 0.0 69 559
r 0.474519 1 2 tcp 1040 ------- 0 0.0 3.0 98 502
r 0.474695 2 3 tcp 1040 ------- 0 0.0 3.0 90 489
r 0.474903 3 2 ack 40 ------- 0 3.0 0.0 83 591
r 0.475527 2 3 tcp 1040 ------- 0 0.0 3.0 91 492
r 0.475735 3 2 ack 40 ------- 0 3.0 0.0 84 593
r 0.475943 2 1 ack 40 ------- 0 3.0 0.0 77 577
r 0.476151 1 0 ack 40 ------- 0 3.0 0.0 70 562
r 0.476151 1 2 tcp 1040 ------- 0 0.0 3.0 99 505
r 0.477159 0 1 tcp 1040 ------- 0 0.0 3.0 127 594
r 0.477159 2 3 tcp 1040 ------- 0 0.0 3.0 92 493
r 0.477367 3 2 ack 40 ------- 0 3.0 0.0 85 597
r 0.477575 2 1 ack 40 ------- 0 3.0 0.0 78 580
r 0.477783 1 0 ack 40 ------- 0 3.0 0.0 71 564
r 0.477783 1 2 tcp 1040 ------- 0 0.0 3.0 100 506
r 0.477991 0 1 tcp 1040 ------- 0 0.0 3.0 128 595
r 0.478791 2 3 tcp 1040 ------- 0 0.0 3.0 93 495
r 0.478823 0 1 tcp 1040 ------- 0 0.0 3.0 129 599
r 0.478999 3 2 ack 40 ------- 0 3.0 0.0 86 604
r 0.479207 2 1 ack 40 ------- 0 3.0 0.0 79 582
r 0.479415 1 0 ack 40 ------- 0 3.0 0.0 72 566
r 0.479415 1 2 tcp 1040 ------- 0 0.0 3.0 101 508
r 0.479655 0 1 tcp 1040 ------- 0 0.0 3.0 130 600
r 0.479831 3 2 ack 40 ------- 0 3.0 0.0 87 605
r 0.480039 2 1 ack 40 ------- 0 3.0 0.0 80 584
r 0.480247 1 0 ack 40 ------- 0 3.0 0.0 73 568
r 0.480247 1 2 tcp 1040 ------- 0 0.0 3.0 102 509
r 0.480423 2 3 tcp 1040 ------- 0 0.0 3.0 94 496
r 0.480487 0 1 tcp 1040 ------- 0 0.0 3.0 131 601
r 0.481255 2 3 tcp 1040 ------- 0 0.0 3.0 95 499
r 0.481319 0 1 tcp 1040 ------- 0 0.0 3.0 132 602
r 0.481463 3 2 ack 40 ------- 0 3.0 0.0 88 610
r 0.481671 2 1 ack 40 ------- 0 3.0 0.0 81 586
r 0.481879 1 0 ack 40 ------- 0 3.0 0.0 74 571
r 0.481879 1 2 tcp 1040 ------- 0 0.0 3.0 103 512
r 0.482151 0 1 tcp 1040 ------- 0 0.0 3.0 133 607
r 0.482887 2 3 tcp 1040 ------- 0 0.0 3.0 96 500
r 0.482983 0 1 tcp 1040 ------- 0 0.0 3.0 134 608
r 0.483095 3 2 ack 40 ------- 0 3.0 0.0 89 614
r 0.483303 2 1 ack 40 ------- 0 3.0 0.0 82 589
r 0.483511 1 0 ack 40 ------- 0 3.0 0.0 75 573
r 0.483511 1 2 tcp 1040 ------- 0 0.0 3.0 104 513
r 0.483815 0 1 tcp 1040 ------- 0 0.0 3.0 135 611
d 0.483815 1 2 tcp 1040 ------- 0 0.0 3.0 135 611
r 0.484343 1 0 ack 40 ------- 0 3.0 0.0 76 575
r 0.484519 2 3 tcp 1040 ------- 0 0.0 3.0 97 501
r 0.484647 0 1 tcp 1040 ------- 0 0.0 3.0 136 612
r 0.484727 3 2 ack 40 ------- 0 3.0 0.0 90 621
r 0.484935 2 1 ack 40 ------- 0 3.0 0.0 83 591
r 0.485143 1 2 tcp 1040 ------- 0 0.0 3.0 105 514
r 0.485351 2 3 tcp 1040 ------- 0 0.0 3.0 98 502
r 0.485479 0 1 tcp 1040 ------- 0 0.0 3.0 137 616
r 0.485559 3 2 ack 40 ------- 0 3.0 0.0 91 622
r 0.485767 2 1 ack 40 ------- 0 3.0 0.0 84 593
r 0.485975 1 0 ack 40 ------- 0 3.0 0.0 77 577
r 0.485975 1 2 tcp 1040 ------- 0 0.0 3.0 106 515
r 0.486311 0 1 tcp 1040 ------- 0 0.0 3.0 138 617
d 0.486311 1 2 tcp 1040 ------- 0 0.0 3.0 138 617
r 0.486983 2 3 tcp 1040 ------- 0 0.0 3.0 99 505
r 0.487143 0 1 tcp 1040 ------- 0 0.0 3.0 139 618
r 0.487191 3 2 ack 40 ------- 0 3.0 0.0 92 627
r 0.487399 2 1 ack 40 ------- 0 3.0 0.0 85 597
r 0.487607 1 0 ack 40 ------- 0 3.0 0.0 78 580
r 0.487607 1 2 tcp 1040 ------- 0 0.0 3.0 107 518
r 0.487975 0 1 tcp 1040 ------- 0 0.0 3.0 140 619
r 0.488615 2 3 tcp 1040 ------- 0 0.0 3.0 100 506
r 0.488807 0 1 tcp 1040 ------- 0 0.0 3.0 141 624
d 0.488807 1 2 tcp 1040 ------- 0 0.0 3.0 141 624
r 0.488823 3 2 ack 40 ------- 0 3.0 0.0 93 631
r 0.489031 2 1 ack 40 ------- 0 3.0 0.0 86 604
r 0.489239 1 0 ack 40 ------- 0 3.0 0.0 79 582
r 0.489239 1 2 tcp 1040 ------- 0 0.0 3.0 108 519
r 0.489639 0 1 tcp 1040 ------- 0 0.0 3.0 142 625
d 0.489639 1 2 tcp 1040 ------- 0 0.0 3.0 142 625
r 0.489863 2 1 ack 40 ------- 0 3.0 0.0 87 605
r 0.490071 1 0 ack 40 ------- 0 3.0 0.0 80 584
r 0.490071 1 2 tcp 1040 ------- 0 0.0 3.0 109 521
r 0.490247 2 3 tcp 1040 ------- 0 0.0 3.0 101 508
r 0.490455 3 2 ack 40 ------- 0 3.0 0.0 94 638
r 0.490471 0 1 tcp 1040 ------- 0 0.0 3.0 143 628