r 0.030032 0 1 tcp 40 ------- 0 0.0 3.0 0 0
r 0.040832 1 2 tcp 40 ------- 0 0.0 3.0 0 0
r 0.050864 2 3 tcp 40 ------- 0 0.0 3.0 0 0
r 0.060896 3 2 ack 40 ------- 0 3.0 0.0 0 28
r 0.070928 2 1 ack 40 ------- 0 3.0 0.0 0 28
r 0.08096 1 0 ack 40 ------- 0 3.0 0.0 0 28
r 0.091792 0 1 tcp 1040 ------- 0 0.0 3.0 1 66
r 0.092624 0 1 tcp 1040 ------- 0 0.0 3.0 2 67
r 0.103264 1 2 tcp 1040 ------- 0 0.0 3.0 1 66
r 0.104896 1 2 tcp 1040 ------- 0 0.0 3.0 2 67
r 0.114096 2 3 tcp 1040 ------- 0 0.0 3.0 1 66
r 0.115728 2 3 tcp 1040 ------- 0 0.0 3.0 2 67
r 0.124128 3 2 ack 40 ------- 0 3.0 0.0 1 110
r 0.12576 3 2 ack 40 ------- 0 3.0 0.0 2 113
r 0.13416 2 1 ack 40 ------- 0 3.0 0.0 1 110
r 0.135792 2 1 ack 40 ------- 0 3.0 0.0 2 113
r 0.144192 1 0 ack 40 ------- 0 3.0 0.0 1 110
r 0.145824 1 0 ack 40 ------- 0 3.0 0.0 2 113
r 0.155024 0 1 tcp 1040 ------- 0 0.0 3.0 3 149
r 0.155856 0 1 tcp 1040 ------- 0 0.0 3.0 4 150
r 0.156688 0 1 tcp 1040 ------- 0 0.0 3.0 5 153
r 0.15752 0 1 tcp 1040 ------- 0 0.0 3.0 6 154
r 0.168128 1 2 tcp 1040 ------- 0 0.0 3.0 3 149
r 0.16976 1 2 tcp 1040 ------- 0 0.0 3.0 4 150
r 0.171392 1 2 tcp 1040 ------- 0 0.0 3.0 5 153
r 0.173024 1 2 tcp 1040 ------- 0 0.0 3.0 6 154
r 0.17896 2 3 tcp 1040 ------- 0 0.0 3.0 3 149
r 0.180592 2 3 tcp 1040 ------- 0 0.0 3.0 4 150
r 0.182224 2 3 tcp 1040 ------- 0 0.0 3.0 5 153
r 0.183856 2 3 tcp 1040 ------- 0 0.0 3.0 6 154
r 0.188992 3 2 ack 40 ------- 0 3.0 0.0 3 197
r 0.190624 3 2 ack 40 ------- 0 3.0 0.0 4 200
r 0.192256 3 2 ack 40 ------- 0 3.0 0.0 5 203
r 0.193888 3 2 ack 40 ------- 0 3.0 0.0 6 206
r 0.199024 2 1 ack 40 ------- 0 3.0 0.0 3 197
r 0.200656 2 1 ack 40 ------- 0 3.0 0.0 4 200
r 0.202288 2 1 ack 40 ------- 0 3.0 0.0 5 203
r 0.20392 2 1 ack 40 ------- 0 3.0 0.0 6 206
r 0.209056 1 0 ack 40 ------- 0 3.0 0.0 3 197
r 0.210688 1 0 ack 40 ------- 0 3.0 0.0 4 200
r 0.21232 1 0 ack 40 ------- 0 3.0 0.0 5 203
r 0.213952 1 0 ack 40 ------- 0 3.0 0.0 6 206
r 0.219888 0 1 tcp 1040 ------- 0 0.0 3.0 7 238
r 0.22072 0 1 tcp 1040 ------- 0 0.0 3.0 8 239
r 0.221552 0 1 tcp 1040 ------- 0 0.0 3.0 9 242
r 0.222384 0 1 tcp 1040 ------- 0 0.0 3.0 10 243
r 0.223216 0 1 tcp 1040 ------- 0 0.0 3.0 11 246
r 0.224048 0 1 tcp 1040 ------- 0 0.0 3.0 12 247
r 0.22488 0 1 tcp 1040 ------- 0 0.0 3.0 13 250
r 0.225712 0 1 tcp 1040 ------- 0 0.0 3.0 14 251
r 0.236256 1 2 tcp 1040 ------- 0 0.0 3.0 7 238
r 0.237888 1 2 tcp 1040 ------- 0 0.0 3.0 8 239
r 0.23952 1 2 tcp 1040 ------- 0 0.0 3.0 9 242
r 0.241152 1 2 tcp 1040 ------- 0 0.0 3.0 10 243
r 0.242784 1 2 tcp 1040 ------- 0 0.0 3.0 11 246
r 0.244416 1 2 tcp 1040 ------- 0 0.0 3.0 12 247
r 0.246048 1 2 tcp 1040 ------- 0 0.0 3.0 13 250
r 0.247088 2 3 tcp 1040 ------- 0 0.0 3.0 7 238
r 0.24768 1 2 tcp 1040 ------- 0 0.0 3.0 14 251
r 0.24872 2 3 tcp 1040 ------- 0 0.0 3.0 8 239
r 0.250352 2 3 tcp 1040 ------- 0 0.0 3.0 9 242
r 0.251984 2 3 tcp 1040 ------- 0 0.0 3.0 10 243
r 0.253616 2 3 tcp 1040 ------- 0 0.0 3.0 11 246
r 0.255248 2 3 tcp 1040 ------- 0 0.0 3.0 12 247
r 0.25688 2 3 tcp 1040 ------- 0 0.0 3.0 13 250
r 0.25712 3 2 ack 40 ------- 0 3.0 0.0 7 294
r 0.258512 2 3 tcp 1040 ------- 0 0.0 3.0 14 251
r 0.258752 3 2 ack 40 ------- 0 3.0 0.0 8 297
r 0.260384 3 2 ack 40 ------- 0 3.0 0.0 9 300
r 0.262016 3 2 ack 40 ------- 0 3.0 0.0 10 303
r 0.263648 3 2 ack 40 ------- 0 3.0 0.0 11 306
r 0.26528 3 2 ack 40 ------- 0 3.0 0.0 12 309
r 0.266912 3 2 ack 40 ------- 0 3.0 0.0 13 312
r 0.267152 2 1 ack 40 ------- 0 3.0 0.0 7 294
r 0.268544 3 2 ack 40 ------- 0 3.0 0.0 14 315
r 0.268784 2 1 ack 40 ------- 0 3.0 0.0 8 297
r 0.270416 2 1 ack 40 ------- 0 3.0 0.0 9 300
r 0.272048 2 1 ack 40 ------- 0 3.0 0.0 10 303
r 0.27368 2 1 ack 40 ------- 0 3.0 0.0 11 306
r 0.275312 2 1 ack 40 ------- 0 3.0 0.0 12 309
r 0.276944 2 1 ack 40 ------- 0 3.0 0.0 13 312
r 0.277184 1 0 ack 40 ------- 0 3.0 0.0 7 294
r 0.278576 2 1 ack 40 ------- 0 3.0 0.0 14 315
r 0.278816 1 0 ack 40 ------- 0 3.0 0.0 8 297
r 0.280448 1 0 ack 40 ------- 0 3.0 0.0 9 300
r 0.28208 1 0 ack 40 ------- 0 3.0 0.0 10 303
r 0.283712 1 0 ack 40 ------- 0 3.0 0.0 11 306
r 0.285344 1 0 ack 40 ------- 0 3.0 0.0 12 309
r 0.286976 1 0 ack 40 ------- 0 3.0 0.0 13 312
r 0.288016 0 1 tcp 1040 ------- 0 0.0 3.0 15 339
r 0.288608 1 0 ack 40 ------- 0 3.0 0.0 14 315
r 0.288848 0 1 tcp 1040 ------- 0 0.0 3.0 16 340
r 0.28968 0 1 tcp 1040 ------- 0 0.0 3.0 17 344
r 0.290512 0 1 tcp 1040 ------- 0 0.0 3.0 18 345
r 0.291344 0 1 tcp 1040 ------- 0 0.0 3.0 19 348
r 0.292176 0 1 tcp 1040 ------- 0 0.0 3.0 20 349
r 0.293008 0 1 tcp 1040 ------- 0 0.0 3.0 21 352
r 0.29384 0 1 tcp 1040 ------- 0 0.0 3.0 22 353
r 0.294672 0 1 tcp 1040 ------- 0 0.0 3.0 23 356
r 0.295504 0 1 tcp 1040 ------- 0 0.0 3.0 24 357
r 0.296336 0 1 tcp 1040 ------- 0 0.0 3.0 25 360
r 0.297168 0 1 tcp 1040 ------- 0 0.0 3.0 26 361
r 0.298 0 1 tcp 1040 ------- 0 0.0 3.0 27 364
r 0.298832 0 1 tcp 1040 ------- 0 0.0 3.0 28 365
r 0.299664 0 1 tcp 1040 ------- 0 0.0 3.0 29 368
r 0.300496 0 1 tcp 1040 ------- 0 0.0 3.0 30 369
r 0.310912 1 2 tcp 1040 ------- 0 0.0 3.0 15 339
r 0.312544 1 2 tcp 1040 ------- 0 0.0 3.0 16 340
r 0.314176 1 2 tcp 1040 ------- 0 0.0 3.0 17 344
r 0.315808 1 2 tcp 1040 ------- 0 0.0 3.0 18 345
r 0.31744 1 2 tcp 1040 ------- 0 0.0 3.0 19 348
r 0.319072 1 2 tcp 1040 ------- 0 0.0 3.0 20 349
r 0.320704 1 2 tcp 1040 ------- 0 0.0 3.0 21 352
r 0.321744 2 3 tcp 1040 ------- 0 0.0 3.0 15 339
r 0.322336 1 2 tcp 1040 ------- 0 0.0 3.0 22 353
r 0.323376 2 3 tcp 1040 ------- 0 0.0 3.0 16 340
r 0.323968 1 2 tcp 1040 ------- 0 0.0 3.0 23 356
r 0.325008 2 3 tcp 1040 ------- 0 0.0 3.0 17 344
r 0.3256 1 2 tcp 1040 ------- 0 0.0 3.0 24 357
r 0.32664 2 3 tcp 1040 ------- 0 0.0 3.0 18 345
r 0.327232 1 2 tcp 1040 ------- 0 0.0 3.0 25 360
r 0.328272 2 3 tcp 1040 ------- 0 0.0 3.0 19 348
r 0.328864 1 2 tcp 1040 ------- 0 0.0 3.0 26 361
r 0.329904 2 3 tcp 1040 ------- 0 0.0 3.0 20 349
r 0.330496 1 2 tcp 1040 ------- 0 0.0 3.0 27 364
r 0.331536 2 3 tcp 1040 ------- 0 0.0 3.0 21 352
r 0.331776 3 2 ack 40 ------- 0 3.0 0.0 15 411
r 0.332928 1 2 tcp 1040 ------- 0 0.0 3.0 28 365
r 0.333168 2 3 tcp 1040 ------- 0 0.0 3.0 22 353
r 0.333408 3 2 ack 40 ------- 0 3.0 0.0 16 414
r 0.33456 1 2 tcp 1040 ------- 0 0.0 3.0 29 368
r 0.3348 2 3 tcp 1040 ------- 0 0.0 3.0 23 356
r 0.33504 3 2 ack 40 ------- 0 3.0 0.0 17 417
r 0.336192 1 2 tcp 1040 ------- 0 0.0 3.0 30 369
r 0.336432 2 3 tcp 1040 ------- 0 0.0 3.0 24 357
r 0.336672 3 2 ack 40 ------- 0 3.0 0.0 18 420
r 0.338064 2 3 tcp 1040 ------- 0 0.0 3.0 25 360
r 0.338304 3 2 ack 40 ------- 0 3.0 0.0 19 423
r 0.339696 2 3 tcp 1040 ------- 0 0.0 3.0 26 361
r 0.339936 3 2 ack 40 ------- 0 3.0 0.0 20 426
r 0.341328 2 3 tcp 1040 ------- 0 0.0 3.0 27 364
r 0.341568 3 2 ack 40 ------- 0 3.0 0.0 21 429
r 0.341808 2 1 ack 40 ------- 0 3.0 0.0 15 411
r 0.3432 3 2 ack 40 ------- 0 3.0 0.0 22 432
r 0.34344 2 1 ack 40 ------- 0 3.0 0.0 16 414
r 0.34376 2 3 tcp 1040 ------- 0 0.0 3.0 28 365
r 0.344832 3 2 ack 40 ------- 0 3.0 0.0 23 435
r 0.345072 2 1 ack 40 ------- 0 3.0 0.0 17 417
r 0.345392 2 3 tcp 1040 ------- 0 0.0 3.0 29 368
r 0.346464 3 2 ack 40 ------- 0 3.0 0.0 24 439
r 0.346704 2 1 ack 40 ------- 0 3.0 0.0 18 420
r 0.347024 2 3 tcp 1040 ------- 0 0.0 3.0 30 369
r 0.348096 3 2 ack 40 ------- 0 3.0 0.0 25 442
r 0.348336 2 1 ack 40 ------- 0 3.0 0.0 19 423
r 0.349728 3 2 ack 40 ------- 0 3.0 0.0 26 445
r 0.349968 2 1 ack 40 ------- 0 3.0 0.0 20 426
r 0.35136 3 2 ack 40 ------- 0 3.0 0.0 27 448
r 0.3516 2 1 ack 40 ------- 0 3.0 0.0 21 429
r 0.35184 1 0 ack 40 ------- 0 3.0 0.0 15 411
r 0.353232 2 1 ack 40 ------- 0 3.0 0.0 22 432
r 0.353472 1 0 ack 40 ------- 0 3.0 0.0 16 414
r 0.353792 3 2 ack 40 ------- 0 3.0 0.0 28 452
r 0.354864 2 1 ack 40 ------- 0 3.0 0.0 23 435
r 0.355104 1 0 ack 40 ------- 0 3.0 0.0 17 417
r 0.355424 3 2 ack 40 ------- 0 3.0 0.0 29 455
r 0.356496 2 1 ack 40 ------- 0 3.0 0.0 24 439
r 0.356736 1 0 ack 40 ------- 0 3.0 0.0 18 420
r 0.357056 3 2 ack 40 ------- 0 3.0 0.0 30 458
r 0.358128 2 1 ack 40 ------- 0 3.0 0.0 25 442
r 0.358368 1 0 ack 40 ------- 0 3.0 0.0 19 423
r 0.35976 2 1 ack 40 ------- 0 3.0 0.0 26 445
r 0.36 1 0 ack 40 ------- 0 3.0 0.0 20 426
r 0.361392 2 1 ack 40 ------- 0 3.0 0.0 27 448
r 0.361632 1 0 ack 40 ------- 0 3.0 0.0 21 429
r 0.362672 0 1 tcp 1040 ------- 0 0.0 3.0 31 465
r 0.363264 1 0 ack 40 ------- 0 3.0 0.0 22 432
r 0.363504 0 1 tcp 1040 ------- 0 0.0 3.0 32 466
r 0.363824 2 1 ack 40 ------- 0 3.0 0.0 28 452
r 0.364336 0 1 tcp 1040 ------- 0 0.0 3.0 33 469
r 0.364896 1 0 ack 40 ------- 0 3.0 0.0 23 435
r 0.365168 0 1 tcp 1040 ------- 0 0.0 3.0 34 470
r 0.365456 2 1 ack 40 ------- 0 3.0 0.0 29 455
r 0.366 0 1 tcp 1040 ------- 0 0.0 3.0 35 473
r 0.366528 1 0 ack 40 ------- 0 3.0 0.0 24 439
r 0.366832 0 1 tcp 1040 ------- 0 0.0 3.0 36 474
r 0.367088 2 1 ack 40 ------- 0 3.0 0.0 30 458
r 0.367664 0 1 tcp 1040 ------- 0 0.0 3.0 37 477
r 0.36816 1 0 ack 40 ------- 0 3.0 0.0 25 442
r 0.368496 0 1 tcp 1040 ------- 0 0.0 3.0 38 478
r 0.369328 0 1 tcp 1040 ------- 0 0.0 3.0 39 481
r 0.369792 1 0 ack 40 ------- 0 3.0 0.0 26 445
r 0.37016 0 1 tcp 1040 ------- 0 0.0 3.0 40 482
r 0.370992 0 1 tcp 1040 ------- 0 0.0 3.0 41 485
r 0.371424 1 0 ack 40 ------- 0 3.0 0.0 27 448
r 0.371824 0 1 tcp 1040 ------- 0 0.0 3.0 42 486
r 0.372656 0 1 tcp 1040 ------- 0 0.0 3.0 43 489
r 0.373488 0 1 tcp 1040 ------- 0 0.0 3.0 44 490
r 0.373856 1 0 ack 40 ------- 0 3.0 0.0 28 452
r 0.37432 0 1 tcp 1040 ------- 0 0.0 3.0 45 493
r 0.375152 0 1 tcp 1040 ------- 0 0.0 3.0 46 494
r 0.375488 1 0 ack 40 ------- 0 3.0 0.0 29 455
r 0.375984 0 1 tcp 1040 ------- 0 0.0 3.0 47 497
r 0.376816 0 1 tcp 1040 ------- 0 0.0 3.0 48 498
r 0.37712 1 0 ack 40 ------- 0 3.0 0.0 30 458
r 0.377648 0 1 tcp 1040 ------- 0 0.0 3.0 49 501
r 0.37848 0 1 tcp 1040 ------- 0 0.0 3.0 50 502
r 0.379312 0 1 tcp 1040 ------- 0 0.0 3.0 51 505
r 0.380144 0 1 tcp 1040 ------- 0 0.0 3.0 52 506
r 0.380976 0 1 tcp 1040 ------- 0 0.0 3.0 53 509
r 0.381808 0 1 tcp 1040 ------- 0 0.0 3.0 54 510
r 0.38264 0 1 tcp 1040 ------- 0 0.0 3.0 55 513
r 0.383472 0 1 tcp 1040 ------- 0 0.0 3.0 56 514
r 0.384688 0 1 tcp 1040 ------- 0 0.0 3.0 57 518
r 0.38552 0 1 tcp 1040 ------- 0 0.0 3.0 58 519
r 0.386352 0 1 tcp 1040 ------- 0 0.0 3.0 59 522
r 0.387184 0 1 tcp 1040 ------- 0 0.0 3.0 60 523
r 0.388016 0 1 tcp 1040 ------- 0 0.0 3.0 61 526
r 0.388848 0 1 tcp 1040 ------- 0 0.0 3.0 62 527
r 0.398624 1 2 tcp 1040 ------- 0 0.0 3.0 31 465
r 0.400256 1 2 tcp 1040 ------- 0 0.0 3.0 32 466
r 0.401888 1 2 tcp 1040 ------- 0 0.0 3.0 33 469
r 0.40352 1 2 tcp 1040 ------- 0 0.0 3.0 34 470
r 0.405152 1 2 tcp 1040 ------- 0 0.0 3.0 35 473
r 0.407584 1 2 tcp 1040 ------- 0 0.0 3.0 36 474
r 0.409216 1 2 tcp 1040 ------- 0 0.0 3.0 37 477
r 0.409456 2 3 tcp 1040 ------- 0 0.0 3.0 31 465
r 0.410848 1 2 tcp 1040 ------- 0 0.0 3.0 38 478
r 0.411088 2 3 tcp 1040 ------- 0 0.0 3.0 32 466
r 0.41248 1 2 tcp 1040 ------- 0 0.0 3.0 39 481
r 0.41272 2 3 tcp 1040 ------- 0 0.0 3.0 33 469
r 0.414112 1 2 tcp 1040 ------- 0 0.0 3.0 40 482
r 0.414352 2 3 tcp 1040 ------- 0 0.0 3.0 34 470
r 0.415744 1 2 tcp 1040 ------- 0 0.0 3.0 41 485
r 0.415984 2 3 tcp 1040 ------- 0 0.0 3.0 35 473
r 0.417376 1 2 tcp 1040 ------- 0 0.0 3.0 42 486
r 0.418416 2 3 tcp 1040 ------- 0 0.0 3.0 36 474
r 0.419008 1 2 tcp 1040 ------- 0 0.0 3.0 43 489
r 0.419488 3 2 ack 40 ------- 0 3.0 0.0 31 569
r 0.420048 2 3 tcp 1040 ------- 0 0.0 3.0 37 477
r 0.42064 1 2 tcp 1040 ------- 0 0.0 3.0 44 490
r 0.42112 3 2 ack 40 ------- 0 3.0 0.0 32 572
r 0.42168 2 3 tcp 1040 ------- 0 0.0 3.0 38 478
r 0.422272 1 2 tcp 1040 ------- 0 0.0 3.0 45 493
r 0.422752 3 2 ack 40 ------- 0 3.0 0.0 33 575
r 0.423312 2 3 tcp 1040 ------- 0 0.0 3.0 39 481
r 0.423904 1 2 tcp 1040 ------- 0 0.0 3.0 46 494
r 0.424384 3 2 ack 40 ------- 0 3.0 0.0 34 578
r 0.424944 2 3 tcp 1040 ------- 0 0.0 3.0 40 482
r 0.425536 1 2 tcp 1040 ------- 0 0.0 3.0 47 497
r 0.426016 3 2 ack 40 ------- 0 3.0 0.0 35 581
r 0.426576 2 3 tcp 1040 ------- 0 0.0 3.0 41 485
r 0.427168 1 2 tcp 1040 ------- 0 0.0 3.0 48 498
r 0.428 1 2 tcp 1040 ------- 0 0.0 3.0 49 501
r 0.428208 2 3 tcp 1040 ------- 0 0.0 3.0 42 486
r 0.428448 3 2 ack 40 ------- 0 3.0 0.0 36 585
r 0.428832 1 2 tcp 1040 ------- 0 0.0 3.0 50 502
r 0.42952 2 1 ack 40 ------- 0 3.0 0.0 31 569
r 0.429664 1 2 tcp 1040 ------- 0 0.0 3.0 51 505
r 0.42984 2 3 tcp 1040 ------- 0 0.0 3.0 43 489
r 0.43008 3 2 ack 40 ------- 0 3.0 0.0 37 588
r 0.430496 1 2 tcp 1040 ------- 0 0.0 3.0 52 506
r 0.431152 2 1 ack 40 ------- 0 3.0 0.0 32 572
r 0.431328 1 2 tcp 1040 ------- 0 0.0 3.0 53 509
r 0.431472 2 3 tcp 1040 ------- 0 0.0 3.0 44 490
r 0.431712 3 2 ack 40 ------- 0 3.0 0.0 38 591
r 0.43216 1 2 tcp 1040 ------- 0 0.0 3.0 54 510
r 0.432784 2 1 ack 40 ------- 0 3.0 0.0 33 575
r 0.432992 1 2 tcp 1040 ------- 0 0.0 3.0 55 513
r 0.433104 2 3 tcp 1040 ------- 0 0.0 3.0 45 493
r 0.433344 3 2 ack 40 ------- 0 3.0 0.0 39 594
r 0.433824 1 2 tcp 1040 ------- 0 0.0 3.0 56 514
r 0.434416 2 1 ack 40 ------- 0 3.0 0.0 34 578
r 0.434736 2 3 tcp 1040 ------- 0 0.0 3.0 46 494
r 0.434976 3 2 ack 40 ------- 0 3.0 0.0 40 597
r 0.435456 1 2 tcp 1040 ------- 0 0.0 3.0 57 518
r 0.436048 2 1 ack 40 ------- 0 3.0 0.0 35 581
r 0.436288 1 2 tcp 1040 ------- 0 0.0 3.0 58 519
r 0.436368 2 3 tcp 1040 ------- 0 0.0 3.0 47 497
r 0.436608 3 2 ack 40 ------- 0 3.0 0.0 41 600
r 0.43712 1 2 tcp 1040 ------- 0 0.0 3.0 59 522
r 0.437952 1 2 tcp 1040 ------- 0 0.0 3.0 60 523
r 0.438 2 3 tcp 1040 ------- 0 0.0 3.0 48 498
r 0.43824 3 2 ack 40 ------- 0 3.0 0.0 42 603
r 0.43848 2 1 ack 40 ------- 0 3.0 0.0 36 585
r 0.438784 1 2 tcp 1040 ------- 0 0.0 3.0 61 526
r 0.438832 2 3 tcp 1040 ------- 0 0.0 3.0 49 501
r 0.439552 1 0 ack 40 ------- 0 3.0 0.0 31 569
r 0.439616 1 2 tcp 1040 ------- 0 0.0 3.0 62 527
r 0.439664 2 3 tcp 1040 ------- 0 0.0 3.0 50 502
r 0.439872 3 2 ack 40 ------- 0 3.0 0.0 43 606
r 0.440112 2 1 ack 40 ------- 0 3.0 0.0 37 588
r 0.440496 2 3 tcp 1040 ------- 0 0.0 3.0 51 505
r 0.441184 1 0 ack 40 ------- 0 3.0 0.0 32 572
r 0.441328 2 3 tcp 1040 ------- 0 0.0 3.0 52 506
r 0.441504 3 2 ack 40 ------- 0 3.0 0.0 44 609
r 0.441744 2 1 ack 40 ------- 0 3.0 0.0 38 591
r 0.44216 2 3 tcp 1040 ------- 0 0.0 3.0 53 509
r 0.442816 1 0 ack 40 ------- 0 3.0 0.0 33 575
r 0.442992 2 3 tcp 1040 ------- 0 0.0 3.0 54 510
r 0.443136 3 2 ack 40 ------- 0 3.0 0.0 45 612
r 0.443376 2 1 ack 40 ------- 0 3.0 0.0 39 594
r 0.443824 2 3 tcp 1040 ------- 0 0.0 3.0 55 513
r 0.444448 1 0 ack 40 ------- 0 3.0 0.0 34 578
r 0.444656 2 3 tcp 1040 ------- 0 0.0 3.0 56 514
r 0.444768 3 2 ack 40 ------- 0 3.0 0.0 46 615
r 0.445008 2 1 ack 40 ------- 0 3.0 0.0 40 597
r 0.44608 1 0 ack 40 ------- 0 3.0 0.0 35 581
r 0.446288 2 3 tcp 1040 ------- 0 0.0 3.0 57 518
r 0.4464 3 2 ack 40 ------- 0 3.0 0.0 47 618
r 0.44664 2 1 ack 40 ------- 0 3.0 0.0 41 600
r 0.44712 2 3 tcp 1040 ------- 0 0.0 3.0 58 519
r 0.447952 2 3 tcp 1040 ------- 0 0.0 3.0 59 522
r 0.448032 3 2 ack 40 ------- 0 3.0 0.0 48 621
r 0.448272 2 1 ack 40 ------- 0 3.0 0.0 42 603
r 0.448512 1 0 ack 40 ------- 0 3.0 0.0 36 585
r 0.448784 2 3 tcp 1040 ------- 0 0.0 3.0 60 523
r 0.448864 3 2 ack 40 ------- 0 3.0 0.0 49 624
r 0.449616 2 3 tcp 1040 ------- 0 0.0 3.0 61 526
r 0.449696 3 2 ack 40 ------- 0 3.0 0.0 50 628
r 0.449904 2 1 ack 40 ------- 0 3.0 0.0 43 606
r 0.450144 1 0 ack 40 ------- 0 3.0 0.0 37 588
r 0.450384 0 1 tcp 1040 ------- 0 0.0 3.0 63 625
d 0.450384 1 2 tcp 1040 ------- 0 0.0 3.0 63 625
r 0.450448 2 3 tcp 1040 ------- 0 0.0 3.0 62 527
r 0.450528 3 2 ack 40 ------- 0 3.0 0.0 51 630
r 0.451216 0 1 tcp 1040 ------- 0 0.0 3.0 64 626
d 0.451216 1 2 tcp 1040 ------- 0 0.0 3.0 64 626
r 0.45136 3 2 ack 40 ------- 0 3.0 0.0 52 634
r 0.451536 2 1 ack 40 ------- 0 3.0 0.0 44 609
r 0.451776 1 0 ack 40 ------- 0 3.0 0.0 38 591
r 0.452048 0 1 tcp 1040 ------- 0 0.0 3.0 65 631
r 0.452192 3 2 ack 40 ------- 0 3.0 0.0 53 636
r 0.45288 0 1 tcp 1040 ------- 0 0.0 3.0 66 632
r 0.453024 3 2 ack 40 ------- 0 3.0 0.0 54 640
r 0.453168 2 1 ack 40 ------- 0 3.0 0.0 45 612
r 0.453408 1 0 ack 40 ------- 0 3.0 0.0 39 594
r 0.453712 0 1 tcp 1040 ------- 0 0.0 3.0 67 638
r 0.453856 3 2 ack 40 ------- 0 3.0 0.0 55 642
r 0.454544 0 1 tcp 1040 ------- 0 0.0 3.0 68 639
r 0.454688 3 2 ack 40 ------- 0 3.0 0.0 56 646
r 0.4548 2 1 ack 40 ------- 0 3.0 0.0 46 615
r 0.45504 1 0 ack 40 ------- 0 3.0 0.0 40 597
r 0.455376 0 1 tcp 1040 ------- 0 0.0 3.0 69 644
r 0.456208 0 1 tcp 1040 ------- 0 0.0 3.0 70 645
r 0.45632 3 2 ack 40 ------- 0 3.0 0.0 57 651
r 0.456432 2 1 ack 40 ------- 0 3.0 0.0 47 618
r 0.456672 1 0 ack 40 ------- 0 3.0 0.0 41 600
r 0.45704 0 1 tcp 1040 ------- 0 0.0 3.0 71 649
r 0.457152 3 2 ack 40 ------- 0 3.0 0.0 58 653
r 0.457872 0 1 tcp 1040 ------- 0 0.0 3.0 72 650
r 0.457984 3 2 ack 40 ------- 0 3.0 0.0 59 655
r 0.458064 2 1 ack 40 ------- 0 3.0 0.0 48 621
r 0.458304 1 0 ack 40 ------- 0 3.0 0.0 42 603
r 0.458816 3 2 ack 40 ------- 0 3.0 0.0 60 659
r 0.458896 2 1 ack 40 ------- 0 3.0 0.0 49 624
r 0.459344 0 1 tcp 1040 ------- 0 0.0 3.0 73 657
r 0.459648 3 2 ack 40 ------- 0 3.0 0.0 61 661
r 0.459728 2 1 ack 40 ------- 0 3.0 0.0 50 628
r 0.459936 1 0 ack 40 ------- 0 3.0 0.0 43 606
r 0.460176 0 1 tcp 1040 ------- 0 0.0 3.0 74 658
r 0.46048 3 2 ack 40 ------- 0 3.0 0.0 62 665
r 0.46056 2 1 ack 40 ------- 0 3.0 0.0 51 630
r 0.461008 0 1 tcp 1040 ------- 0 0.0 3.0 75 663
r 0.461392 2 1 ack 40 ------- 0 3.0 0.0 52 634
r 0.461568 1 0 ack 40 ------- 0 3.0 0.0 44 609
r 0.46184 0 1 tcp 1040 ------- 0 0.0 3.0 76 664
r 0.462224 2 1 ack 40 ------- 0 3.0 0.0 53 636
r 0.462672 0 1 tcp 1040 ------- 0 0.0 3.0 77 668
r 0.463056 2 1 ack 40 ------- 0 3.0 0.0 54 640
r 0.4632 1 0 ack 40 ------- 0 3.0 0.0 45 612
r 0.463504 0 1 tcp 1040 ------- 0 0.0 3.0 78 669
r 0.463888 2 1 ack 40 ------- 0 3.0 0.0 55 642
r 0.464336 0 1 tcp 1040 ------- 0 0.0 3.0 79 672
r 0.46472 2 1 ack 40 ------- 0 3.0 0.0 56 646
r 0.464832 1 0 ack 40 ------- 0 3.0 0.0 46 615
r 0.465168 0 1 tcp 1040 ------- 0 0.0 3.0 80 673
r 0.466 0 1 tcp 1040 ------- 0 0.0 3.0 81 676
r 0.466352 2 1 ack 40 ------- 0 3.0 0.0 57 651
r 0.466464 1 0 ack 40 ------- 0 3.0 0.0 47 618
r 0.466832 0 1 tcp 1040 ------- 0 0.0 3.0 82 677
d 0.466832 1 2 tcp 1040 ------- 0 0.0 3.0 82 677
r 0.467184 2 1 ack 40 ------- 0 3.0 0.0 58 653
r 0.467664 0 1 tcp 1040 ------- 0 0.0 3.0 83 680
d 0.467664 1 2 tcp 1040 ------- 0 0.0 3.0 83 680
r 0.468016 2 1 ack 40 ------- 0 3.0 0.0 59 655
r 0.468096 1 0 ack 40 ------- 0 3.0 0.0 48 621
r 0.468496 0 1 tcp 1040 ------- 0 0.0 3.0 84 681
d 0.468496 1 2 tcp 1040 ------- 0 0.0 3.0 84 681
r 0.468848 2 1 ack 40 ------- 0 3.0 0.0 60 659
r 0.468928 1 0 ack 40 ------- 0 3.0 0.0 49 624
r 0.469328 0 1 tcp 1040 ------- 0 0.0 3.0 85 684
d 0.469328 1 2 tcp 1040 ------- 0 0.0 3.0 85 684
r 0.46968 2 1 ack 40 ------- 0 3.0 0.0 61 661
r 0.46976 1 0 ack 40 ------- 0 3.0 0.0 50 628
r 0.47016 0 1 tcp 1040 ------- 0 0.0 3.0 86 685
d 0.47016 1 2 tcp 1040 ------- 0 0.0 3.0 86 685
r 0.470512 2 1 ack 40 ------- 0 3.0 0.0 62 665
r 0.470592 1 0 ack 40 ------- 0 3.0 0.0 51 630
r 0.470992 0 1 tcp 1040 ------- 0 0.0 3.0 87 688
d 0.470992 1 2 tcp 1040 ------- 0 0.0 3.0 87 688
r 0.471424 1 0 ack 40 ------- 0 3.0 0.0 52 634
r 0.471824 0 1 tcp 1040 ------- 0 0.0 3.0 88 689
d 0.471824 1 2 tcp 1040 ------- 0 0.0 3.0 88 689
r 0.472256 1 0 ack 40 ------- 0 3.0 0.0 53 636
r 0.472656 0 1 tcp 1040 ------- 0 0.0 3.0 89 692
d 0.472656 1 2 tcp 1040 ------- 0 0.0 3.0 89 692
r 0.473088 1 0 ack 40 ------- 0 3.0 0.0 54 640
r 0.473488 0 1 tcp 1040 ------- 0 0.0 3.0 90 693
d 0.473488 1 2 tcp 1040 ------- 0 0.0 3.0 90 693
r 0.47392 1 0 ack 40 ------- 0 3.0 0.0 55 642
r 0.47432 0 1 tcp 1040 ------- 0 0.0 3.0 91 696
d 0.47432 1 2 tcp 1040 ------- 0 0.0 3.0 91 696
r 0.474752 1 0 ack 40 ------- 0 3.0 0.0 56 646
r 0.475152 0 1 tcp 1040 ------- 0 0.0 3.0 92 697
d 0.475152 1 2 tcp 1040 ------- 0 0.0 3.0 92 697
r 0.475984 0 1 tcp 1040 ------- 0 0.0 3.0 93 700
d 0.475984 1 2 tcp 1040 ------- 0 0.0 3.0 93 700
r 0.476384 1 0 ack 40 ------- 0 3.0 0.0 57 651
r 0.476816 0 1 tcp 1040 ------- 0 0.0 3.0 94 701
d 0.476816 1 2 tcp 1040 ------- 0 0.0 3.0 94 701
r 0.477216 1 0 ack 40 ------- 0 3.0 0.0 58 653
r 0.477648 0 1 tcp 1040 ------- 0 0.0 3.0 95 704
r 0.478048 1 0 ack 40 ------- 0 3.0 0.0 59 655
r 0.47848 0 1 tcp 1040 ------- 0 0.0 3.0 96 705
r 0.47888 1 0 ack 40 ------- 0 3.0 0.0 60 659
r 0.479312 0 1 tcp 1040 ------- 0 0.0 3.0 97 708
r 0.479712 1 0 ack 40 ------- 0 3.0 0.0 61 661
r 0.480144 0 1 tcp 1040 ------- 0 0.0 3.0 98 709
r 0.480544 1 0 ack 40 ------- 0 3.0 0.0 62 665
r 0.480976 0 1 tcp 1040 ------- 0 0.0 3.0 99 711
r 0.481808 0 1 tcp 1040 ------- 0 0.0 3.0 100 712
r 0.48264 0 1 tcp 1040 ------- 0 0.0 3.0 101 714
r 0.483472 0 1 tcp 1040 ------- 0 0.0 3.0 102 715
r 0.484304 0 1 tcp 1040 ------- 0 0.0 3.0 103 717
r 0.485136 0 1 tcp 1040 ------- 0 0.0 3.0 104 718
r 0.485968 0 1 tcp 1040 ------- 0 0.0 3.0 105 720
r 0.4868 0 1 tcp 1040 ------- 0 0.0 3.0 106 721
r 0.487632 0 1 tcp 1040 ------- 0 0.0 3.0 107 723
d 0.487632 1 2 tcp 1040 ------- 0 0.0 3.0 107 723
r 0.488464 0 1 tcp 1040 ------- 0 0.0 3.0 108 724
d 0.488464 1 2 tcp 1040 ------- 0 0.0 3.0 108 724
r 0.489296 0 1 tcp 1040 ------- 0 0.0 3.0 109 726
d 0.489296 1 2 tcp 1040 ------- 0 0.0 3.0 109 726
r 0.490128 0 1 tcp 1040 ------- 0 0.0 3.0 110 727
d 0.490128 1 2 tcp 1040 ------- 0 0.0 3.0 110 727
r 0.49096 0 1 tcp 1040 ------- 0 0.0 3.0 111 729
d 0.49096 1 2 tcp 1040 ------- 0 0.0 3.0 111 729
r 0.491792 0 1 tcp 1040 ------- 0 0.0 3.0 112 730
d 0.491792 1 2 tcp 1040 ------- 0 0.0 3.0 112 730
r 0.492624 0 1 tcp 1040 ------- 0 0.0 3.0 113 732
d 0.492624 1 2 tcp 1040 ------- 0 0.0 3.0 113 732
r 0.493456 0 1 tcp 1040 ------- 0 0.0 3.0 114 733
d 0.493456 1 2 tcp 1040 ------- 0 0.0 3.0 114 733
r 0.494288 0 1 tcp 1040 ------- 0 0.0 3.0 115 736
d 0.494288 1 2 tcp 1040 ------- 0 0.0 3.0 115 736
r 0.49512 0 1 tcp 1040 ------- 0 0.0 3.0 116 737
d 0.49512 1 2 tcp 1040 ------- 0 0.0 3.0 116 737
r 0.495952 0 1 tcp 1040 ------- 0 0.0 3.0 117 740
d 0.495952 1 2 tcp 1040 ------- 0 0.0 3.0 117 740
r 0.496784 0 1 tcp 1040 ------- 0 0.0 3.0 118 741
d 0.496784 1 2 tcp 1040 ------- 0 0.0 3.0 118 741
r 0.497616 0 1 tcp 1040 ------- 0 0.0 3.0 119 743
d 0.497616 1 2 tcp 1040 ------- 0 0.0 3.0 119 743
r 0.498448 0 1 tcp 1040 ------- 0 0.0 3.0 120 744
d 0.498448 1 2 tcp 1040 ------- 0 0.0 3.0 120 744
r 0.49928 0 1 tcp 1040 ------- 0 0.0 3.0 121 746
d 0.49928 1 2 tcp 1040 ------- 0 0.0 3.0 121 746
r 0.500112 0 1 tcp 1040 ------- 0 0.0 3.0 122 747
d 0.500112 1 2 tcp 1040 ------- 0 0.0 3.0 122 747
r 0.500944 0 1 tcp 1040 ------- 0 0.0 3.0 123 749
d 0.500944 1 2 tcp 1040 ------- 0 0.0 3.0 123 749
r 0.501776 0 1 tcp 1040 ------- 0 0.0 3.0 124 750
d 0.501776 1 2 tcp 1040 ------- 0 0.0 3.0 124 750
r 0.502048 1 2 tcp 1040 ------- 0 0.0 3.0 65 631
r 0.502608 0 1 tcp 1040 ------- 0 0.0 3.0 125 752
d 0.502608 1 2 tcp 1040 ------- 0 0.0 3.0 125 752
r 0.50288 1 2 tcp 1040 ------- 0 0.0 3.0 66 632
r 0.50344 0 1 tcp 1040 ------- 0 0.0 3.0 126 753
r 0.503712 1 2 tcp 1040 ------- 0 0.0 3.0 67 638
r 0.504544 1 2 tcp 1040 ------- 0 0.0 3.0 68 639
r 0.505376 1 2 tcp 1040 ------- 0 0.0 3.0 69 644
r 0.506208 1 2 tcp 1040 ------- 0 0.0 3.0 70 645
r 0.50704 1 2 tcp 1040 ------- 0 0.0 3.0 71 649
r 0.507872 1 2 tcp 1040 ------- 0 0.0 3.0 72 650
r 0.509504 1 2 tcp 1040 ------- 0 0.0 3.0 73 657
r 0.510336 1 2 tcp 1040 ------- 0 0.0 3.0 74 658
r 0.511168 1 2 tcp 1040 ------- 0 0.0 3.0 75 663
r 0.512 1 2 tcp 1040 ------- 0 0.0 3.0 76 664
r 0.512832 1 2 tcp 1040 ------- 0 0.0 3.0 77 668
r 0.51288 2 3 tcp 1040 ------- 0 0.0 3.0 65 631
r 0.513664 1 2 tcp 1040 ------- 0 0.0 3.0 78 669
r 0.513712 2 3 tcp 1040 ------- 0 0.0 3.0 66 632
r 0.514496 1 2 tcp 1040 ------- 0 0.0 3.0 79 672
r 0.514544 2 3 tcp 1040 ------- 0 0.0 3.0 67 638
r 0.515328 1 2 tcp 1040 ------- 0 0.0 3.0 80 673
r 0.515376 2 3 tcp 1040 ------- 0 0.0 3.0 68 639
r 0.51616 1 2 tcp 1040 ------- 0 0.0 3.0 81 676
r 0.516208 2 3 tcp 1040 ------- 0 0.0 3.0 69 644
r 0.51704 2 3 tcp 1040 ------- 0 0.0 3.0 70 645
r 0.517872 2 3 tcp 1040 ------- 0 0.0 3.0 71 649
r 0.518704 2 3 tcp 1040 ------- 0 0.0 3.0 72 650
r 0.520336 2 3 tcp 1040 ------- 0 0.0 3.0 73 657
r 0.521168 2 3 tcp 1040 ------- 0 0.0 3.0 74 658
r 0.522 2 3 tcp 1040 ------- 0 0.0 3.0 75 663
r 0.522832 2 3 tcp 1040 ------- 0 0.0 3.0 76 664
r 0.522912 3 2 ack 40 ------- 0 3.0 0.0 62 794
r 0.523664 2 3 tcp 1040 ------- 0 0.0 3.0 77 668
r 0.523744 3 2 ack 40 ------- 0 3.0 0.0 62 796
r 0.524496 2 3 tcp 1040 ------- 0 0.0 3.0 78 669
r 0.524576 3 2 ack 40 ------- 0 3.0 0.0 62 798
r 0.525328 2 3 tcp 1040 ------- 0 0.0 3.0 79 672
r 0.525408 3 2 ack 40 ------- 0 3.0 0.0 62 800
r 0.52616 2 3 tcp 1040 ------- 0 0.0 3.0 80 673
r 0.52624 3 2 ack 40 ------- 0 3.0 0.0 62 802
r 0.526992 2 3 tcp 1040 ------- 0 0.0 3.0 81 676
r 0.527072 3 2 ack 40 ------- 0 3.0 0.0 62 804
r 0.527904 3 2 ack 40 ------- 0 3.0 0.0 62 806
r 0.528192 1 2 tcp 1040 ------- 0 0.0 3.0 95 704
r 0.528736 3 2 ack 40 ------- 0 3.0 0.0 62 808
r 0.529024 1 2 tcp 1040 ------- 0 0.0 3.0 96 705
r 0.529856 1 2 tcp 1040 ------- 0 0.0 3.0 97 708
r 0.530368 3 2 ack 40 ------- 0 3.0 0.0 62 811
r 0.530688 1 2 tcp 1040 ------- 0 0.0 3.0 98 709
r 0.5312 3 2 ack 40 ------- 0 3.0 0.0 62 813
r 0.53152 1 2 tcp 1040 ------- 0 0.0 3.0 99 711
r 0.532032 3 2 ack 40 ------- 0 3.0 0.0 62 815
r 0.532352 1 2 tcp 1040 ------- 0 0.0 3.0 100 712
r 0.532864 3 2 ack 40 ------- 0 3.0 0.0 62 818
r 0.532944 2 1 ack 40 ------- 0 3.0 0.0 62 794
r 0.533184 1 2 tcp 1040 ------- 0 0.0 3.0 101 714
r 0.533696 3 2 ack 40 ------- 0 3.0 0.0 62 820
r 0.533776 2 1 ack 40 ------- 0 3.0 0.0 62 796
r 0.534016 1 2 tcp 1040 ------- 0 0.0 3.0 102 715
r 0.534528 3 2 ack 40 ------- 0 3.0 0.0 62 822
r 0.534608 2 1 ack 40 ------- 0 3.0 0.0 62 798
r 0.534848 1 2 tcp 1040 ------- 0 0.0 3.0 103 717
r 0.53536 3 2 ack 40 ------- 0 3.0 0.0 62 824
r 0.53544 2 1 ack 40 ------- 0 3.0 0.0 62 800
r 0.53568 1 2 tcp 1040 ------- 0 0.0 3.0 104 718
r 0.536192 3 2 ack 40 ------- 0 3.0 0.0 62 826
r 0.536272 2 1 ack 40 ------- 0 3.0 0.0 62 802
r 0.536512 1 2 tcp 1040 ------- 0 0.0 3.0 105 720
r 0.537024 3 2 ack 40 ------- 0 3.0 0.0 62 828
r 0.537104 2 1 ack 40 ------- 0 3.0 0.0 62 804
r 0.537344 1 2 tcp 1040 ------- 0 0.0 3.0 106 721
r 0.537936 2 1 ack 40 ------- 0 3.0 0.0 62 806
r 0.538768 2 1 ack 40 ------- 0 3.0 0.0 62 808
r 0.539024 2 3 tcp 1040 ------- 0 0.0 3.0 95 704
r 0.539856 2 3 tcp 1040 ------- 0 0.0 3.0 96 705
r 0.5404 2 1 ack 40 ------- 0 3.0 0.0 62 811
r 0.540688 2 3 tcp 1040 ------- 0 0.0 3.0 97 708
r 0.541232 2 1 ack 40 ------- 0 3.0 0.0 62 813
r 0.54152 2 3 tcp 1040 ------- 0 0.0 3.0 98 709
r 0.542064 2 1 ack 40 ------- 0 3.0 0.0 62 815
r 0.542352 2 3 tcp 1040 ------- 0 0.0 3.0 99 711
r 0.542896 2 1 ack 40 ------- 0 3.0 0.0 62 818
r 0.542976 1 0 ack 40 ------- 0 3.0 0.0 62 794
r 0.543184 2 3 tcp 1040 ------- 0 0.0 3.0 100 712
r 0.543728 2 1 ack 40 ------- 0 3.0 0.0 62 820
r 0.543808 1 0 ack 40 ------- 0 3.0 0.0 62 796
r 0.544016 2 3 tcp 1040 ------- 0 0.0 3.0 101 714
r 0.54456 2 1 ack 40 ------- 0 3.0 0.0 62 822
r 0.54464 1 0 ack 40 ------- 0 3.0 0.0 62 798
r 0.544848 2 3 tcp 1040 ------- 0 0.0 3.0 102 715
r 0.545392 2 1 ack 40 ------- 0 3.0 0.0 62 824
r 0.545472 1 0 ack 40 ------- 0 3.0 0.0 62 800
r 0.54568 2 3 tcp 1040 ------- 0 0.0 3.0 103 717
r 0.546224 2 1 ack 40 ------- 0 3.0 0.0 62 826
r 0.546304 1 0 ack 40 ------- 0 3.0 0.0 62 802
r 0.546512 2 3 tcp 1040 ------- 0 0.0 3.0 104 718
r 0.547056 2 1 ack 40 ------- 0 3.0 0.0 62 828
r 0.547136 1 0 ack 40 ------- 0 3.0 0.0 62 804
r 0.547344 2 3 tcp 1040 ------- 0 0.0 3.0 105 720
r 0.547968 1 0 ack 40 ------- 0 3.0 0.0 62 806
r 0.548176 2 3 tcp 1040 ------- 0 0.0 3.0 106 721
r 0.5488 1 0 ack 40 ------- 0 3.0 0.0 62 808
r 0.549056 3 2 ack 40 ------- 0 3.0 0.0 62 844
r 0.549888 3 2 ack 40 ------- 0 3.0 0.0 62 846
r 0.550432 1 0 ack 40 ------- 0 3.0 0.0 62 811
r 0.55072 3 2 ack 40 ------- 0 3.0 0.0 62 848
r 0.551264 1 0 ack 40 ------- 0 3.0 0.0 62 813
r 0.551552 3 2 ack 40 ------- 0 3.0 0.0 62 850
r 0.552096 1 0 ack 40 ------- 0 3.0 0.0 62 815
r 0.552384 3 2 ack 40 ------- 0 3.0 0.0 62 852
r 0.552928 1 0 ack 40 ------- 0 3.0 0.0 62 818
r 0.553216 3 2 ack 40 ------- 0 3.0 0.0 62 855
r 0.553376 1 2 tcp 1040 ------- 0 0.0 3.0 126 753
r 0.55376 1 0 ack 40 ------- 0 3.0 0.0 62 820
r 0.553808 0 1 tcp 1040 ------- 0 0.0 3.0 127 854
r 0.554048 3 2 ack 40 ------- 0 3.0 0.0 62 858
r 0.554592 1 0 ack 40 ------- 0 3.0 0.0 62 822
r 0.55464 0 1 tcp 1040 ------- 0 0.0 3.0 128 857
r 0.55488 3 2 ack 40 ------- 0 3.0 0.0 62 861
r 0.555424 1 0 ack 40 ------- 0 3.0 0.0 62 824
r 0.555472 0 1 tcp 1040 ---A--- 0 0.0 3.0 63 860
r 0.555712 3 2 ack 40 ------- 0 3.0 0.0 62 863
r 0.556256 1 0 ack 40 ------- 0 3.0 0.0 62 826
r 0.556544 3 2 ack 40 ------- 0 3.0 0.0 62 865
r 0.557088 1 0 ack 40 ------- 0 3.0 0.0 62 828
r 0.557376 3 2 ack 40 ------- 0 3.0 0.0 62 867
r 0.558208 3 2 ack 40 ------- 0 3.0 0.0 62 869
r 0.559088 2 1 ack 40 ------- 0 3.0 0.0 62 844
r 0.55992 2 1 ack 40 ------- 0 3.0 0.0 62 846
r 0.560752 2 1 ack 40 ------- 0 3.0 0.0 62 848
r 0.561584 2 1 ack 40 ------- 0 3.0 0.0 62 850
r 0.562416 2 1 ack 40 ------- 0 3.0 0.0 62 852
r 0.563248 2 1 ack 40 ------- 0 3.0 0.0 62 855
r 0.56408 2 1 ack 40 ------- 0 3.0 0.0 62 858
r 0.564208 2 3 tcp 1040 ------- 0 0.0 3.0 126 753
r 0.564912 2 1 ack 40 ------- 0 3.0 0.0 62 861
r 0.565744 2 1 ack 40 ------- 0 3.0 0.0 62 863
r 0.566576 2 1 ack 40 ------- 0 3.0 0.0 62 865
r 0.567408 2 1 ack 40 ------- 0 3.0 0.0 62 867
r 0.56824 2 1 ack 40 ------- 0 3.0 0.0 62 869
r 0.56912 1 0 ack 40 ------- 0 3.0 0.0 62 844
r 0.569952 1 0 ack 40 ------- 0 3.0 0.0 62 846
r 0.570784 1 0 ack 40 ------- 0 3.0 0.0 62 848
r 0.571616 1 0 ack 40 ------- 0 3.0 0.0 62 850
r 0.572448 1 0 ack 40 ------- 0 3.0 0.0 62 852
r 0.57328 1 0 ack 40 ------- 0 3.0 0.0 62 855
r 0.574112 1 0 ack 40 ------- 0 3.0 0.0 62 858
r 0.57424 3 2 ack 40 ------- 0 3.0 0.0 62 890
r 0.574944 1 0 ack 40 ------- 0 3.0 0.0 62 861
r 0.575776 1 0 ack 40 ------- 0 3.0 0.0 62 863
r 0.576608 1 0 ack 40 ------- 0 3.0 0.0 62 865
r 0.57744 1 0 ack 40 ------- 0 3.0 0.0 62 867
r 0.578272 1 0 ack 40 ------- 0 3.0 0.0 62 869