r 0.030032 0 1 tcp 40 ------- 0 0.0 3.0 0 0
r 0.040832 1 2 tcp 40 ------- 0 0.0 3.0 0 0
r 0.050864 2 3 tcp 40 ------- 0 0.0 3.0 0 0
r 0.060896 3 2 ack 40 ------- 0 3.0 0.0 0 22
r 0.070928 2 1 ack 40 ------- 0 3.0 0.0 0 22
r 0.08096 1 0 ack 40 ------- 0 3.0 0.0 0 22
r 0.091792 0 1 tcp 1040 ------- 0 0.0 3.0 1 53
r 0.092624 0 1 tcp 1040 ------- 0 0.0 3.0 2 54
r 0.102632 1 2 tcp 1040 ------- 0 0.0 3.0 1 53
r 0.104264 1 2 tcp 1040 ------- 0 0.0 3.0 2 54
r 0.113464 2 3 tcp 1040 ------- 0 0.0 3.0 1 53
r 0.115096 2 3 tcp 1040 ------- 0 0.0 3.0 2 54
r 0.123496 3 2 ack 40 ------- 0 3.0 0.0 1 88
r 0.125128 3 2 ack 40 ------- 0 3.0 0.0 2 91
r 0.133528 2 1 ack 40 ------- 0 3.0 0.0 1 88
r 0.13516 2 1 ack 40 ------- 0 3.0 0.0 2 91
r 0.14356 1 0 ack 40 ------- 0 3.0 0.0 1 88
r 0.145192 1 0 ack 40 ------- 0 3.0 0.0 2 91
r 0.154392 0 1 tcp 1040 ------- 0 0.0 3.0 3 120
r 0.155224 0 1 tcp 1040 ------- 0 0.0 3.0 4 121
r 0.156056 0 1 tcp 1040 ------- 0 0.0 3.0 5 124
r 0.156888 0 1 tcp 1040 ------- 0 0.0 3.0 6 125
r 0.165632 1 2 tcp 1040 ------- 0 0.0 3.0 3 120
r 0.167264 1 2 tcp 1040 ------- 0 0.0 3.0 4 121
r 0.168896 1 2 tcp 1040 ------- 0 0.0 3.0 5 124
r 0.169728 1 2 tcp 1040 ------- 0 0.0 3.0 6 125
r 0.176464 2 3 tcp 1040 ------- 0 0.0 3.0 3 120
r 0.178096 2 3 tcp 1040 ------- 0 0.0 3.0 4 121
r 0.179728 2 3 tcp 1040 ------- 0 0.0 3.0 5 124
r 0.18056 2 3 tcp 1040 ------- 0 0.0 3.0 6 125
r 0.186496 3 2 ack 40 ------- 0 3.0 0.0 3 157
r 0.188128 3 2 ack 40 ------- 0 3.0 0.0 4 160
r 0.18976 3 2 ack 40 ------- 0 3.0 0.0 5 162
r 0.190592 3 2 ack 40 ------- 0 3.0 0.0 6 164
r 0.196528 2 1 ack 40 ------- 0 3.0 0.0 3 157
r 0.19816 2 1 ack 40 ------- 0 3.0 0.0 4 160
r 0.199792 2 1 ack 40 ------- 0 3.0 0.0 5 162
r 0.200624 2 1 ack 40 ------- 0 3.0 0.0 6 164
r 0.20656 1 0 ack 40 ------- 0 3.0 0.0 3 157
r 0.208192 1 0 ack 40 ------- 0 3.0 0.0 4 160
r 0.209824 1 0 ack 40 ------- 0 3.0 0.0 5 162
r 0.210656 1 0 ack 40 ------- 0 3.0 0.0 6 164
r 0.217392 0 1 tcp 1040 ------- 0 0.0 3.0 7 191
r 0.218224 0 1 tcp 1040 ------- 0 0.0 3.0 8 192
r 0.219056 0 1 tcp 1040 ------- 0 0.0 3.0 9 195
r 0.219888 0 1 tcp 1040 ------- 0 0.0 3.0 10 196
r 0.22072 0 1 tcp 1040 ------- 0 0.0 3.0 11 198
r 0.221552 0 1 tcp 1040 ------- 0 0.0 3.0 12 199
r 0.222384 0 1 tcp 1040 ------- 0 0.0 3.0 13 201
r 0.223216 0 1 tcp 1040 ------- 0 0.0 3.0 14 202
r 0.228632 1 2 tcp 1040 ------- 0 0.0 3.0 7 191
r 0.230264 1 2 tcp 1040 ------- 0 0.0 3.0 8 192
r 0.231896 1 2 tcp 1040 ------- 0 0.0 3.0 9 195
r 0.232728 1 2 tcp 1040 ------- 0 0.0 3.0 10 196
r 0.23436 1 2 tcp 1040 ------- 0 0.0 3.0 11 198
r 0.235992 1 2 tcp 1040 ------- 0 0.0 3.0 12 199
r 0.237624 1 2 tcp 1040 ------- 0 0.0 3.0 13 201
r 0.239256 1 2 tcp 1040 ------- 0 0.0 3.0 14 202
r 0.239464 2 3 tcp 1040 ------- 0 0.0 3.0 7 191
r 0.241096 2 3 tcp 1040 ------- 0 0.0 3.0 8 192
r 0.242728 2 3 tcp 1040 ------- 0 0.0 3.0 9 195
r 0.24356 2 3 tcp 1040 ------- 0 0.0 3.0 10 196
r 0.245192 2 3 tcp 1040 ------- 0 0.0 3.0 11 198
r 0.246824 2 3 tcp 1040 ------- 0 0.0 3.0 12 199
r 0.248456 2 3 tcp 1040 ------- 0 0.0 3.0 13 201
r 0.249496 3 2 ack 40 ------- 0 3.0 0.0 7 232
r 0.250088 2 3 tcp 1040 ------- 0 0.0 3.0 14 202
r 0.251128 3 2 ack 40 ------- 0 3.0 0.0 8 235
r 0.25276 3 2 ack 40 ------- 0 3.0 0.0 9 237
r 0.253592 3 2 ack 40 ------- 0 3.0 0.0 10 239
r 0.255224 3 2 ack 40 ------- 0 3.0 0.0 11 242
r 0.256856 3 2 ack 40 ------- 0 3.0 0.0 12 244
r 0.258488 3 2 ack 40 ------- 0 3.0 0.0 13 247
r 0.259528 2 1 ack 40 ------- 0 3.0 0.0 7 232
r 0.26012 3 2 ack 40 ------- 0 3.0 0.0 14 250
r 0.26116 2 1 ack 40 ------- 0 3.0 0.0 8 235
r 0.262792 2 1 ack 40 ------- 0 3.0 0.0 9 237
r 0.263624 2 1 ack 40 ------- 0 3.0 0.0 10 239
r 0.265256 2 1 ack 40 ------- 0 3.0 0.0 11 242
r 0.266888 2 1 ack 40 ------- 0 3.0 0.0 12 244
r 0.26852 2 1 ack 40 ------- 0 3.0 0.0 13 247
r 0.26956 1 0 ack 40 ------- 0 3.0 0.0 7 232
r 0.270152 2 1 ack 40 ------- 0 3.0 0.0 14 250
r 0.271192 1 0 ack 40 ------- 0 3.0 0.0 8 235
r 0.272824 1 0 ack 40 ------- 0 3.0 0.0 9 237
r 0.273656 1 0 ack 40 ------- 0 3.0 0.0 10 239
r 0.275288 1 0 ack 40 ------- 0 3.0 0.0 11 242
r 0.27692 1 0 ack 40 ------- 0 3.0 0.0 12 244
r 0.278552 1 0 ack 40 ------- 0 3.0 0.0 13 247
r 0.280184 1 0 ack 40 ------- 0 3.0 0.0 14 250
r 0.280392 0 1 tcp 1040 ------- 0 0.0 3.0 15 270
r 0.281224 0 1 tcp 1040 ------- 0 0.0 3.0 16 271
r 0.282056 0 1 tcp 1040 ------- 0 0.0 3.0 17 274
r 0.282888 0 1 tcp 1040 ------- 0 0.0 3.0 18 275
r 0.28372 0 1 tcp 1040 ------- 0 0.0 3.0 19 277
r 0.284552 0 1 tcp 1040 ------- 0 0.0 3.0 20 278
r 0.285384 0 1 tcp 1040 ------- 0 0.0 3.0 21 280
r 0.286216 0 1 tcp 1040 ------- 0 0.0 3.0 22 281
r 0.287048 0 1 tcp 1040 ------- 0 0.0 3.0 23 284
r 0.28788 0 1 tcp 1040 ------- 0 0.0 3.0 24 285
r 0.288712 0 1 tcp 1040 ------- 0 0.0 3.0 25 287
r 0.289544 0 1 tcp 1040 ------- 0 0.0 3.0 26 288
r 0.290376 0 1 tcp 1040 ------- 0 0.0 3.0 27 291
r 0.291208 0 1 tcp 1040 ------- 0 0.0 3.0 28 292
r 0.291632 1 2 tcp 1040 ------- 0 0.0 3.0 15 270
r 0.29204 0 1 tcp 1040 ------- 0 0.0 3.0 29 295
r 0.292872 0 1 tcp 1040 ------- 0 0.0 3.0 30 296
r 0.293264 1 2 tcp 1040 ------- 0 0.0 3.0 16 271
r 0.294896 1 2 tcp 1040 ------- 0 0.0 3.0 17 274
r 0.295728 1 2 tcp 1040 ------- 0 0.0 3.0 18 275
r 0.29736 1 2 tcp 1040 ------- 0 0.0 3.0 19 277
r 0.298992 1 2 tcp 1040 ------- 0 0.0 3.0 20 278
r 0.300624 1 2 tcp 1040 ------- 0 0.0 3.0 21 280
r 0.302256 1 2 tcp 1040 ------- 0 0.0 3.0 22 281
r 0.302464 2 3 tcp 1040 ------- 0 0.0 3.0 15 270
r 0.303888 1 2 tcp 1040 ------- 0 0.0 3.0 23 284
r 0.304096 2 3 tcp 1040 ------- 0 0.0 3.0 16 271
r 0.30472 1 2 tcp 1040 ------- 0 0.0 3.0 24 285
r 0.305728 2 3 tcp 1040 ------- 0 0.0 3.0 17 274
r 0.306352 1 2 tcp 1040 ------- 0 0.0 3.0 25 287
r 0.30656 2 3 tcp 1040 ------- 0 0.0 3.0 18 275
r 0.307984 1 2 tcp 1040 ------- 0 0.0 3.0 26 288
r 0.308192 2 3 tcp 1040 ------- 0 0.0 3.0 19 277
r 0.309616 1 2 tcp 1040 ------- 0 0.0 3.0 27 291
r 0.309824 2 3 tcp 1040 ------- 0 0.0 3.0 20 278
r 0.311248 1 2 tcp 1040 ------- 0 0.0 3.0 28 292
r 0.311456 2 3 tcp 1040 ------- 0 0.0 3.0 21 280
r 0.312496 3 2 ack 40 ------- 0 3.0 0.0 15 319
r 0.31288 1 2 tcp 1040 ------- 0 0.0 3.0 29 295
r 0.313088 2 3 tcp 1040 ------- 0 0.0 3.0 22 281
r 0.313712 1 2 tcp 1040 ------- 0 0.0 3.0 30 296
r 0.314128 3 2 ack 40 ------- 0 3.0 0.0 16 322
r 0.31472 2 3 tcp 1040 ------- 0 0.0 3.0 23 284
r 0.315552 2 3 tcp 1040 ------- 0 0.0 3.0 24 285
r 0.31576 3 2 ack 40 ------- 0 3.0 0.0 17 324
r 0.316592 3 2 ack 40 ------- 0 3.0 0.0 18 326
r 0.317184 2 3 tcp 1040 ------- 0 0.0 3.0 25 287
r 0.318224 3 2 ack 40 ------- 0 3.0 0.0 19 329
r 0.318816 2 3 tcp 1040 ------- 0 0.0 3.0 26 288
r 0.319856 3 2 ack 40 ------- 0 3.0 0.0 20 331
r 0.320448 2 3 tcp 1040 ------- 0 0.0 3.0 27 291
r 0.321488 3 2 ack 40 ------- 0 3.0 0.0 21 334
r 0.32208 2 3 tcp 1040 ------- 0 0.0 3.0 28 292
r 0.322528 2 1 ack 40 ------- 0 3.0 0.0 15 319
r 0.32312 3 2 ack 40 ------- 0 3.0 0.0 22 337
r 0.323712 2 3 tcp 1040 ------- 0 0.0 3.0 29 295
r 0.32416 2 1 ack 40 ------- 0 3.0 0.0 16 322
r 0.324544 2 3 tcp 1040 ------- 0 0.0 3.0 30 296
r 0.324752 3 2 ack 40 ------- 0 3.0 0.0 23 339
r 0.325584 3 2 ack 40 ------- 0 3.0 0.0 24 341
r 0.325792 2 1 ack 40 ------- 0 3.0 0.0 17 324
r 0.326624 2 1 ack 40 ------- 0 3.0 0.0 18 326
r 0.327216 3 2 ack 40 ------- 0 3.0 0.0 25 344
r 0.328256 2 1 ack 40 ------- 0 3.0 0.0 19 329
r 0.328848 3 2 ack 40 ------- 0 3.0 0.0 26 346
r 0.329888 2 1 ack 40 ------- 0 3.0 0.0 20 331
r 0.33048 3 2 ack 40 ------- 0 3.0 0.0 27 349
r 0.33152 2 1 ack 40 ------- 0 3.0 0.0 21 334
r 0.332112 3 2 ack 40 ------- 0 3.0 0.0 28 352
r 0.33256 1 0 ack 40 ------- 0 3.0 0.0 15 319
r 0.333152 2 1 ack 40 ------- 0 3.0 0.0 22 337
r 0.333744 3 2 ack 40 ------- 0 3.0 0.0 29 354
r 0.334192 1 0 ack 40 ------- 0 3.0 0.0 16 322
r 0.334576 3 2 ack 40 ------- 0 3.0 0.0 30 356
r 0.334784 2 1 ack 40 ------- 0 3.0 0.0 23 339
r 0.335616 2 1 ack 40 ------- 0 3.0 0.0 24 341
r 0.335824 1 0 ack 40 ------- 0 3.0 0.0 17 324
r 0.336656 1 0 ack 40 ------- 0 3.0 0.0 18 326
r 0.337248 2 1 ack 40 ------- 0 3.0 0.0 25 344
r 0.338288 1 0 ack 40 ------- 0 3.0 0.0 19 329
r 0.33888 2 1 ack 40 ------- 0 3.0 0.0 26 346
r 0.33992 1 0 ack 40 ------- 0 3.0 0.0 20 331
r 0.340512 2 1 ack 40 ------- 0 3.0 0.0 27 349
r 0.341552 1 0 ack 40 ------- 0 3.0 0.0 21 334
r 0.342144 2 1 ack 40 ------- 0 3.0 0.0 28 352
r 0.343184 1 0 ack 40 ------- 0 3.0 0.0 22 337
r 0.343392 0 1 tcp 1040 ------- 0 0.0 3.0 31 365
r 0.343776 2 1 ack 40 ------- 0 3.0 0.0 29 354
r 0.344224 0 1 tcp 1040 ------- 0 0.0 3.0 32 366
r 0.344608 2 1 ack 40 ------- 0 3.0 0.0 30 356
r 0.344816 1 0 ack 40 ------- 0 3.0 0.0 23 339
r 0.345056 0 1 tcp 1040 ------- 0 0.0 3.0 33 369
r 0.345648 1 0 ack 40 ------- 0 3.0 0.0 24 341
r 0.345888 0 1 tcp 1040 ------- 0 0.0 3.0 34 370
r 0.34672 0 1 tcp 1040 ------- 0 0.0 3.0 35 372
r 0.34728 1 0 ack 40 ------- 0 3.0 0.0 25 344
r 0.347552 0 1 tcp 1040 ------- 0 0.0 3.0 36 373
r 0.348384 0 1 tcp 1040 ------- 0 0.0 3.0 37 375
r 0.348912 1 0 ack 40 ------- 0 3.0 0.0 26 346
r 0.349216 0 1 tcp 1040 ------- 0 0.0 3.0 38 376
r 0.350048 0 1 tcp 1040 ------- 0 0.0 3.0 39 379
r 0.350544 1 0 ack 40 ------- 0 3.0 0.0 27 349
r 0.35088 0 1 tcp 1040 ------- 0 0.0 3.0 40 380
r 0.351712 0 1 tcp 1040 ------- 0 0.0 3.0 41 382
r 0.352176 1 0 ack 40 ------- 0 3.0 0.0 28 352
r 0.352544 0 1 tcp 1040 ------- 0 0.0 3.0 42 383
r 0.353376 0 1 tcp 1040 ------- 0 0.0 3.0 43 386
r 0.353808 1 0 ack 40 ------- 0 3.0 0.0 29 354
r 0.354208 0 1 tcp 1040 ------- 0 0.0 3.0 44 387
r 0.35464 1 0 ack 40 ------- 0 3.0 0.0 30 356
r 0.35504 0 1 tcp 1040 ------- 0 0.0 3.0 45 390
r 0.355344 1 2 tcp 1040 ------- 0 0.0 3.0 31 365
r 0.355872 0 1 tcp 1040 ------- 0 0.0 3.0 46 391
r 0.356704 0 1 tcp 1040 ------- 0 0.0 3.0 47 393
r 0.356976 1 2 tcp 1040 ------- 0 0.0 3.0 32 366
r 0.357536 0 1 tcp 1040 ------- 0 0.0 3.0 48 394
r 0.358368 0 1 tcp 1040 ------- 0 0.0 3.0 49 396
r 0.358608 1 2 tcp 1040 ------- 0 0.0 3.0 33 369
r 0.3592 0 1 tcp 1040 ------- 0 0.0 3.0 50 397
r 0.35944 1 2 tcp 1040 ------- 0 0.0 3.0 34 370
r 0.360032 0 1 tcp 1040 ------- 0 0.0 3.0 51 400
r 0.360864 0 1 tcp 1040 ------- 0 0.0 3.0 52 401
r 0.361072 1 2 tcp 1040 ------- 0 0.0 3.0 35 372
r 0.361696 0 1 tcp 1040 ------- 0 0.0 3.0 53 403
r 0.362528 0 1 tcp 1040 ------- 0 0.0 3.0 54 404
r 0.362704 1 2 tcp 1040 ------- 0 0.0 3.0 36 373
r 0.36336 0 1 tcp 1040 ------- 0 0.0 3.0 55 407
r 0.364192 0 1 tcp 1040 ------- 0 0.0 3.0 56 408
r 0.364336 1 2 tcp 1040 ------- 0 0.0 3.0 37 375
r 0.365024 0 1 tcp 1040 ------- 0 0.0 3.0 57 411
r 0.365856 0 1 tcp 1040 ------- 0 0.0 3.0 58 412
r 0.365968 1 2 tcp 1040 ------- 0 0.0 3.0 38 376
r 0.366176 2 3 tcp 1040 ------- 0 0.0 3.0 31 365
r 0.366688 0 1 tcp 1040 ------- 0 0.0 3.0 59 414
r 0.36752 0 1 tcp 1040 ------- 0 0.0 3.0 60 415
r 0.3676 1 2 tcp 1040 ------- 0 0.0 3.0 39 379
r 0.367808 2 3 tcp 1040 ------- 0 0.0 3.0 32 366
r 0.368352 0 1 tcp 1040 ------- 0 0.0 3.0 61 417
r 0.368432 1 2 tcp 1040 ------- 0 0.0 3.0 40 380
r 0.369184 0 1 tcp 1040 ------- 0 0.0 3.0 62 418
r 0.36944 2 3 tcp 1040 ------- 0 0.0 3.0 33 369
r 0.370064 1 2 tcp 1040 ------- 0 0.0 3.0 41 382
r 0.370272 2 3 tcp 1040 ------- 0 0.0 3.0 34 370
r 0.371696 1 2 tcp 1040 ------- 0 0.0 3.0 42 383
r 0.371904 2 3 tcp 1040 ------- 0 0.0 3.0 35 372
r 0.373328 1 2 tcp 1040 ------- 0 0.0 3.0 43 386
r 0.373536 2 3 tcp 1040 ------- 0 0.0 3.0 36 373
r 0.37496 1 2 tcp 1040 ------- 0 0.0 3.0 44 387
r 0.375168 2 3 tcp 1040 ------- 0 0.0 3.0 37 375
r 0.376208 3 2 ack 40 ------- 0 3.0 0.0 31 431
r 0.376592 1 2 tcp 1040 ------- 0 0.0 3.0 45 390
r 0.3768 2 3 tcp 1040 ------- 0 0.0 3.0 38 376
r 0.377424 1 2 tcp 1040 ------- 0 0.0 3.0 46 391
r 0.37784 3 2 ack 40 ------- 0 3.0 0.0 32 433
r 0.378432 2 3 tcp 1040 ------- 0 0.0 3.0 39 379
r 0.379056 1 2 tcp 1040 ------- 0 0.0 3.0 47 393
r 0.379264 2 3 tcp 1040 ------- 0 0.0 3.0 40 380
r 0.379472 3 2 ack 40 ------- 0 3.0 0.0 33 436
r 0.380304 3 2 ack 40 ------- 0 3.0 0.0 34 438
r 0.380688 1 2 tcp 1040 ------- 0 0.0 3.0 48 394
r 0.380896 2 3 tcp 1040 ------- 0 0.0 3.0 41 382
r 0.381936 3 2 ack 40 ------- 0 3.0 0.0 35 440
r 0.38232 1 2 tcp 1040 ------- 0 0.0 3.0 49 396
r 0.382528 2 3 tcp 1040 ------- 0 0.0 3.0 42 383
r 0.383568 3 2 ack 40 ------- 0 3.0 0.0 36 443
r 0.383952 1 2 tcp 1040 ------- 0 0.0 3.0 50 397
r 0.38416 2 3 tcp 1040 ------- 0 0.0 3.0 43 386
r 0.3852 3 2 ack 40 ------- 0 3.0 0.0 37 446
r 0.385584 1 2 tcp 1040 ------- 0 0.0 3.0 51 400
r 0.385792 2 3 tcp 1040 ------- 0 0.0 3.0 44 387
r 0.38624 2 1 ack 40 ------- 0 3.0 0.0 31 431
r 0.386416 1 2 tcp 1040 ------- 0 0.0 3.0 52 401
r 0.386832 3 2 ack 40 ------- 0 3.0 0.0 38 448
r 0.387424 2 3 tcp 1040 ------- 0 0.0 3.0 45 390
r 0.387872 2 1 ack 40 ------- 0 3.0 0.0 32 433
r 0.388048 1 2 tcp 1040 ------- 0 0.0 3.0 53 403
r 0.388256 2 3 tcp 1040 ------- 0 0.0 3.0 46 391
r 0.388464 3 2 ack 40 ------- 0 3.0 0.0 39 451
r 0.389296 3 2 ack 40 ------- 0 3.0 0.0 40 453
r 0.389504 2 1 ack 40 ------- 0 3.0 0.0 33 436
r 0.38968 1 2 tcp 1040 ------- 0 0.0 3.0 54 404
r 0.389888 2 3 tcp 1040 ------- 0 0.0 3.0 47 393
r 0.390336 2 1 ack 40 ------- 0 3.0 0.0 34 438
r 0.390928 3 2 ack 40 ------- 0 3.0 0.0 41 455
r 0.391312 1 2 tcp 1040 ------- 0 0.0 3.0 55 407
r 0.39152 2 3 tcp 1040 ------- 0 0.0 3.0 48 394
r 0.391968 2 1 ack 40 ------- 0 3.0 0.0 35 440
r 0.39256 3 2 ack 40 ------- 0 3.0 0.0 42 458
r 0.392944 1 2 tcp 1040 ------- 0 0.0 3.0 56 408
r 0.393152 2 3 tcp 1040 ------- 0 0.0 3.0 49 396
r 0.3936 2 1 ack 40 ------- 0 3.0 0.0 36 443
r 0.394192 3 2 ack 40 ------- 0 3.0 0.0 43 461
r 0.394576 1 2 tcp 1040 ------- 0 0.0 3.0 57 411
r 0.394784 2 3 tcp 1040 ------- 0 0.0 3.0 50 397
r 0.395232 2 1 ack 40 ------- 0 3.0 0.0 37 446
r 0.395408 1 2 tcp 1040 ------- 0 0.0 3.0 58 412
r 0.395824 3 2 ack 40 ------- 0 3.0 0.0 44 463
r 0.396272 1 0 ack 40 ------- 0 3.0 0.0 31 431
r 0.396416 2 3 tcp 1040 ------- 0 0.0 3.0 51 400
r 0.396864 2 1 ack 40 ------- 0 3.0 0.0 38 448
r 0.39704 1 2 tcp 1040 ------- 0 0.0 3.0 59 414
r 0.397248 2 3 tcp 1040 ------- 0 0.0 3.0 52 401
r 0.397456 3 2 ack 40 ------- 0 3.0 0.0 45 466
r 0.397904 1 0 ack 40 ------- 0 3.0 0.0 32 433
r 0.398288 3 2 ack 40 ------- 0 3.0 0.0 46 468
r 0.398496 2 1 ack 40 ------- 0 3.0 0.0 39 451
r 0.398672 1 2 tcp 1040 ------- 0 0.0 3.0 60 415
r 0.39888 2 3 tcp 1040 ------- 0 0.0 3.0 53 403
r 0.399328 2 1 ack 40 ------- 0 3.0 0.0 40 453
r 0.399536 1 0 ack 40 ------- 0 3.0 0.0 33 436
r 0.39992 3 2 ack 40 ------- 0 3.0 0.0 47 470
r 0.400304 1 2 tcp 1040 ------- 0 0.0 3.0 61 417
r 0.400368 1 0 ack 40 ------- 0 3.0 0.0 34 438
r 0.400512 2 3 tcp 1040 ------- 0 0.0 3.0 54 404
r 0.40096 2 1 ack 40 ------- 0 3.0 0.0 41 455
r 0.401552 3 2 ack 40 ------- 0 3.0 0.0 48 473
r 0.401936 1 2 tcp 1040 ------- 0 0.0 3.0 62 418
r 0.402 1 0 ack 40 ------- 0 3.0 0.0 35 440
r 0.402144 2 3 tcp 1040 ------- 0 0.0 3.0 55 407
r 0.402592 2 1 ack 40 ------- 0 3.0 0.0 42 458
r 0.403184 3 2 ack 40 ------- 0 3.0 0.0 49 476
r 0.403632 1 0 ack 40 ------- 0 3.0 0.0 36 443
r 0.403776 2 3 tcp 1040 ------- 0 0.0 3.0 56 408
r 0.404224 2 1 ack 40 ------- 0 3.0 0.0 43 461
r 0.404816 3 2 ack 40 ------- 0 3.0 0.0 50 478
r 0.405264 1 0 ack 40 ------- 0 3.0 0.0 37 446
r 0.405408 2 3 tcp 1040 ------- 0 0.0 3.0 57 411
r 0.405856 2 1 ack 40 ------- 0 3.0 0.0 44 463
r 0.40624 2 3 tcp 1040 ------- 0 0.0 3.0 58 412
r 0.406448 3 2 ack 40 ------- 0 3.0 0.0 51 483
r 0.406896 1 0 ack 40 ------- 0 3.0 0.0 38 448
r 0.407104 0 1 tcp 1040 ------- 0 0.0 3.0 63 481
r 0.40728 3 2 ack 40 ------- 0 3.0 0.0 52 485
r 0.407488 2 1 ack 40 ------- 0 3.0 0.0 45 466
r 0.407872 2 3 tcp 1040 ------- 0 0.0 3.0 59 414
r 0.407936 0 1 tcp 1040 ------- 0 0.0 3.0 64 482
r 0.40832 2 1 ack 40 ------- 0 3.0 0.0 46 468
r 0.408528 1 0 ack 40 ------- 0 3.0 0.0 39 451
r 0.408768 0 1 tcp 1040 ------- 0 0.0 3.0 65 486
r 0.408912 3 2 ack 40 ------- 0 3.0 0.0 53 489
r 0.40936 1 0 ack 40 ------- 0 3.0 0.0 40 453
r 0.409504 2 3 tcp 1040 ------- 0 0.0 3.0 60 415
r 0.4096 0 1 tcp 1040 ------- 0 0.0 3.0 66 487
r 0.409952 2 1 ack 40 ------- 0 3.0 0.0 47 470
r 0.410432 0 1 tcp 1040 ------- 0 0.0 3.0 67 491
r 0.410544 3 2 ack 40 ------- 0 3.0 0.0 54 496
r 0.410992 1 0 ack 40 ------- 0 3.0 0.0 41 455
r 0.411136 2 3 tcp 1040 ------- 0 0.0 3.0 61 417
r 0.411264 0 1 tcp 1040 ------- 0 0.0 3.0 68 492
r 0.411584 2 1 ack 40 ------- 0 3.0 0.0 48 473
r 0.412096 0 1 tcp 1040 ------- 0 0.0 3.0 69 494
r 0.412176 3 2 ack 40 ------- 0 3.0 0.0 55 501
r 0.412624 1 0 ack 40 ------- 0 3.0 0.0 42 458
r 0.412768 2 3 tcp 1040 ------- 0 0.0 3.0 62 418
r 0.412928 0 1 tcp 1040 ------- 0 0.0 3.0 70 495
r 0.413216 2 1 ack 40 ------- 0 3.0 0.0 49 476
r 0.41376 0 1 tcp 1040 ------- 0 0.0 3.0 71 499
r 0.413808 3 2 ack 40 ------- 0 3.0 0.0 56 505
r 0.414256 1 0 ack 40 ------- 0 3.0 0.0 43 461
r 0.414592 0 1 tcp 1040 ------- 0 0.0 3.0 72 500
r 0.414848 2 1 ack 40 ------- 0 3.0 0.0 50 478
r 0.415424 0 1 tcp 1040 ------- 0 0.0 3.0 73 503
r 0.41544 3 2 ack 40 ------- 0 3.0 0.0 57 510
r 0.415888 1 0 ack 40 ------- 0 3.0 0.0 44 463
r 0.416256 0 1 tcp 1040 ------- 0 0.0 3.0 74 504
r 0.416272 3 2 ack 40 ------- 0 3.0 0.0 58 512
r 0.41648 2 1 ack 40 ------- 0 3.0 0.0 51 483
r 0.417088 0 1 tcp 1040 ------- 0 0.0 3.0 75 508
r 0.417312 2 1 ack 40 ------- 0 3.0 0.0 52 485
r 0.41752 1 0 ack 40 ------- 0 3.0 0.0 45 466
r 0.417904 3 2 ack 40 ------- 0 3.0 0.0 59 516
r 0.41792 0 1 tcp 1040 ------- 0 0.0 3.0 76 509
r 0.418352 1 0 ack 40 ------- 0 3.0 0.0 46 468
r 0.418752 0 1 tcp 1040 ------- 0 0.0 3.0 77 513
r 0.418944 2 1 ack 40 ------- 0 3.0 0.0 53 489
r 0.419536 3 2 ack 40 ------- 0 3.0 0.0 60 523
r 0.419584 0 1 tcp 1040 ------- 0 0.0 3.0 78 514
r 0.419984 1 0 ack 40 ------- 0 3.0 0.0 47 470
r 0.420416 0 1 tcp 1040 ------- 0 0.0 3.0 79 518
r 0.420576 2 1 ack 40 ------- 0 3.0 0.0 54 496
r 0.421168 3 2 ack 40 ------- 0 3.0 0.0 61 528
r 0.421248 0 1 tcp 1040 ------- 0 0.0 3.0 80 519
r 0.421616 1 0 ack 40 ------- 0 3.0 0.0 48 473
r 0.42208 0 1 tcp 1040 ------- 0 0.0 3.0 81 521
r 0.422208 2 1 ack 40 ------- 0 3.0 0.0 55 501
r 0.4228 3 2 ack 40 ------- 0 3.0 0.0 62 532
r 0.422912 0 1 tcp 1040 ------- 0 0.0 3.0 82 522
r 0.423248 1 0 ack 40 ------- 0 3.0 0.0 49 476
r 0.423744 0 1 tcp 1040 ------- 0 0.0 3.0 83 525
r 0.42384 2 1 ack 40 ------- 0 3.0 0.0 56 505
r 0.424576 0 1 tcp 1040 ------- 0 0.0 3.0 84 526
r 0.42488 1 0 ack 40 ------- 0 3.0 0.0 50 478
r 0.425408 0 1 tcp 1040 ------- 0 0.0 3.0 85 530
r 0.425472 2 1 ack 40 ------- 0 3.0 0.0 57 510
r 0.42624 0 1 tcp 1040 ------- 0 0.0 3.0 86 531
r 0.426304 2 1 ack 40 ------- 0 3.0 0.0 58 512
r 0.426512 1 0 ack 40 ------- 0 3.0 0.0 51 483
r 0.427072 0 1 tcp 1040 ------- 0 0.0 3.0 87 535
r 0.427344 1 0 ack 40 ------- 0 3.0 0.0 52 485
r 0.427904 0 1 tcp 1040 ------- 0 0.0 3.0 88 536
r 0.427936 2 1 ack 40 ------- 0 3.0 0.0 59 516
r 0.428736 0 1 tcp 1040 ------- 0 0.0 3.0 89 538
r 0.428976 1 0 ack 40 ------- 0 3.0 0.0 53 489
r 0.429568 0 1 tcp 1040 ------- 0 0.0 3.0 90 539
r 0.429568 2 1 ack 40 ------- 0 3.0 0.0 60 523
r 0.4304 0 1 tcp 1040 ------- 0 0.0 3.0 91 542
r 0.430608 1 0 ack 40 ------- 0 3.0 0.0 54 496
r 0.4312 2 1 ack 40 ------- 0 3.0 0.0 61 528
r 0.431232 0 1 tcp 1040 ------- 0 0.0 3.0 92 543
r 0.432064 0 1 tcp 1040 ------- 0 0.0 3.0 93 545
r 0.43224 1 0 ack 40 ------- 0 3.0 0.0 55 501
r 0.432832 2 1 ack 40 ------- 0 3.0 0.0 62 532
r 0.432896 0 1 tcp 1040 ------- 0 0.0 3.0 94 546
r 0.433168 1 2 tcp 1040 ------- 0 0.0 3.0 63 481
r 0.433728 0 1 tcp 1040 ------- 0 0.0 3.0 95 548
r 0.433872 1 0 ack 40 ------- 0 3.0 0.0 56 505
r 0.434 1 2 tcp 1040 ------- 0 0.0 3.0 64 482
r 0.43456 0 1 tcp 1040 ------- 0 0.0 3.0 96 549
r 0.435392 0 1 tcp 1040 ------- 0 0.0 3.0 97 552
r 0.435504 1 0 ack 40 ------- 0 3.0 0.0 57 510
r 0.435632 1 2 tcp 1040 ------- 0 0.0 3.0 65 486
r 0.436224 0 1 tcp 1040 ------- 0 0.0 3.0 98 553
r 0.436336 1 0 ack 40 ------- 0 3.0 0.0 58 512
r 0.437056 0 1 tcp 1040 ------- 0 0.0 3.0 99 556
r 0.437264 1 2 tcp 1040 ------- 0 0.0 3.0 66 487
r 0.437888 0 1 tcp 1040 ------- 0 0.0 3.0 100 557
r 0.437968 1 0 ack 40 ------- 0 3.0 0.0 59 516
r 0.43872 0 1 tcp 1040 ------- 0 0.0 3.0 101 559
r 0.438896 1 2 tcp 1040 ------- 0 0.0 3.0 67 491
r 0.439552 0 1 tcp 1040 ------- 0 0.0 3.0 102 560
r 0.4396 1 0 ack 40 ------- 0 3.0 0.0 60 523
r 0.440384 0 1 tcp 1040 ------- 0 0.0 3.0 103 563
r 0.440528 1 2 tcp 1040 ------- 0 0.0 3.0 68 492
r 0.441216 0 1 tcp 1040 ------- 0 0.0 3.0 104 564
r 0.441232 1 0 ack 40 ------- 0 3.0 0.0 61 528
r 0.442048 0 1 tcp 1040 ------- 0 0.0 3.0 105 566
d 0.442048 1 2 tcp 1040 ------- 0 0.0 3.0 105 566
r 0.44216 1 2 tcp 1040 ------- 0 0.0 3.0 69 494
r 0.442864 1 0 ack 40 ------- 0 3.0 0.0 62 532
r 0.44288 0 1 tcp 1040 ------- 0 0.0 3.0 106 567
r 0.442992 1 2 tcp 1040 ------- 0 0.0 3.0 70 495
r 0.443712 0 1 tcp 1040 ------- 0 0.0 3.0 107 569
r 0.444 2 3 tcp 1040 ------- 0 0.0 3.0 63 481
r 0.444544 0 1 tcp 1040 ------- 0 0.0 3.0 108 570
r 0.444624 1 2 tcp 1040 ------- 0 0.0 3.0 71 499
r 0.444832 2 3 tcp 1040 ------- 0 0.0 3.0 64 482
r 0.445376 0 1 tcp 1040 ------- 0 0.0 3.0 109 573
r 0.446208 0 1 tcp 1040 ------- 0 0.0 3.0 110 574
r 0.446256 1 2 tcp 1040 ------- 0 0.0 3.0 72 500
r 0.446464 2 3 tcp 1040 ------- 0 0.0 3.0 65 486
r 0.44704 0 1 tcp 1040 ------- 0 0.0 3.0 111 577
d 0.44704 1 2 tcp 1040 ------- 0 0.0 3.0 111 577
r 0.447872 0 1 tcp 1040 ------- 0 0.0 3.0 112 578
r 0.447888 1 2 tcp 1040 ------- 0 0.0 3.0 73 503
r 0.448096 2 3 tcp 1040 ------- 0 0.0 3.0 66 487
r 0.448704 0 1 tcp 1040 ------- 0 0.0 3.0 113 580
r 0.44952 1 2 tcp 1040 ------- 0 0.0 3.0 74 504
r 0.449536 0 1 tcp 1040 ------- 0 0.0 3.0 114 581
r 0.449728 2 3 tcp 1040 ------- 0 0.0 3.0 67 491
r 0.450368 0 1 tcp 1040 ------- 0 0.0 3.0 115 584
r 0.451152 1 2 tcp 1040 ------- 0 0.0 3.0 75 508
r 0.4512 0 1 tcp 1040 ------- 0 0.0 3.0 116 585
d 0.4512 1 2 tcp 1040 ------- 0 0.0 3.0 116 585
r 0.45136 2 3 tcp 1040 ------- 0 0.0 3.0 68 492
r 0.451984 1 2 tcp 1040 ------- 0 0.0 3.0 76 509
r 0.452032 0 1 tcp 1040 ------- 0 0.0 3.0 117 587
d 0.452032 1 2 tcp 1040 ------- 0 0.0 3.0 117 587
r 0.452864 0 1 tcp 1040 ------- 0 0.0 3.0 118 588
r 0.452992 2 3 tcp 1040 ------- 0 0.0 3.0 69 494
r 0.453616 1 2 tcp 1040 ------- 0 0.0 3.0 77 513
r 0.453696 0 1 tcp 1040 ------- 0 0.0 3.0 119 590
r 0.453824 2 3 tcp 1040 ------- 0 0.0 3.0 70 495
r 0.454032 3 2 ack 40 ------- 0 3.0 0.0 63 605
r 0.454528 0 1 tcp 1040 ------- 0 0.0 3.0 120 591
r 0.454864 3 2 ack 40 ------- 0 3.0 0.0 64 606
r 0.455248 1 2 tcp 1040 ------- 0 0.0 3.0 78 514
r 0.45536 0 1 tcp 1040 ------- 0 0.0 3.0 121 594
r 0.455456 2 3 tcp 1040 ------- 0 0.0 3.0 71 499
r 0.456192 0 1 tcp 1040 ------- 0 0.0 3.0 122 595
d 0.456192 1 2 tcp 1040 ------- 0 0.0 3.0 122 595
r 0.456496 3 2 ack 40 ------- 0 3.0 0.0 65 609
r 0.45688 1 2 tcp 1040 ------- 0 0.0 3.0 79 518
r 0.457024 0 1 tcp 1040 ------- 0 0.0 3.0 123 598
d 0.457024 1 2 tcp 1040 ------- 0 0.0 3.0 123 598
r 0.457088 2 3 tcp 1040 ------- 0 0.0 3.0 72 500
r 0.457856 0 1 tcp 1040 ------- 0 0.0 3.0 124 599
r 0.458128 3 2 ack 40 ------- 0 3.0 0.0 66 612
r 0.458512 1 2 tcp 1040 ------- 0 0.0 3.0 80 519
r 0.458688 0 1 tcp 1040 ------- 0 0.0 3.0 125 601
r 0.45872 2 3 tcp 1040 ------- 0 0.0 3.0 73 503
r 0.45952 0 1 tcp 1040 ------- 0 0.0 3.0 126 602
r 0.45976 3 2 ack 40 ------- 0 3.0 0.0 67 614
r 0.460144 1 2 tcp 1040 ------- 0 0.0 3.0 81 521
r 0.460352 2 3 tcp 1040 ------- 0 0.0 3.0 74 504
r 0.460976 1 2 tcp 1040 ------- 0 0.0 3.0 82 522
r 0.461392 3 2 ack 40 ------- 0 3.0 0.0 68 617
r 0.461984 2 3 tcp 1040 ------- 0 0.0 3.0 75 508
r 0.462608 1 2 tcp 1040 ------- 0 0.0 3.0 83 525
r 0.462816 2 3 tcp 1040 ------- 0 0.0 3.0 76 509
r 0.463024 3 2 ack 40 ------- 0 3.0 0.0 69 619
r 0.463856 3 2 ack 40 ------- 0 3.0 0.0 70 621
r 0.464064 2 1 ack 40 ------- 0 3.0 0.0 63 605
r 0.46424 1 2 tcp 1040 ------- 0 0.0 3.0 84 526
r 0.464448 2 3 tcp 1040 ------- 0 0.0 3.0 77 513
r 0.464896 2 1 ack 40 ------- 0 3.0 0.0 64 606
r 0.465488 3 2 ack 40 ------- 0 3.0 0.0 71 624
r 0.465872 1 2 tcp 1040 ------- 0 0.0 3.0 85 530
r 0.46608 2 3 tcp 1040 ------- 0 0.0 3.0 78 514
r 0.466528 2 1 ack 40 ------- 0 3.0 0.0 65 609
r 0.46712 3 2 ack 40 ------- 0 3.0 0.0 72 627
r 0.467504 1 2 tcp 1040 ------- 0 0.0 3.0 86 531
r 0.467712 2 3 tcp 1040 ------- 0 0.0 3.0 79 518
r 0.46816 2 1 ack 40 ------- 0 3.0 0.0 66 612
r 0.468752 3 2 ack 40 ------- 0 3.0 0.0 73 629
r 0.469136 1 2 tcp 1040 ------- 0 0.0 3.0 87 535
r 0.469344 2 3 tcp 1040 ------- 0 0.0 3.0 80 519
r 0.469792 2 1 ack 40 ------- 0 3.0 0.0 67 614
r 0.469968 1 2 tcp 1040 ------- 0 0.0 3.0 88 536
r 0.470384 3 2 ack 40 ------- 0 3.0 0.0 74 632
r 0.470976 2 3 tcp 1040 ------- 0 0.0 3.0 81 521
r 0.471424 2 1 ack 40 ------- 0 3.0 0.0 68 617
r 0.4716 1 2 tcp 1040 ------- 0 0.0 3.0 89 538
r 0.471808 2 3 tcp 1040 ------- 0 0.0 3.0 82 522
r 0.472016 3 2 ack 40 ------- 0 3.0 0.0 75 634
r 0.472848 3 2 ack 40 ------- 0 3.0 0.0 76 636
r 0.473056 2 1 ack 40 ------- 0 3.0 0.0 69 619
r 0.473232 1 2 tcp 1040 ------- 0 0.0 3.0 90 539
r 0.47344 2 3 tcp 1040 ------- 0 0.0 3.0 83 525
r 0.473888 2 1 ack 40 ------- 0 3.0 0.0 70 621
r 0.474096 1 0 ack 40 ------- 0 3.0 0.0 63 605
r 0.47448 3 2 ack 40 ------- 0 3.0 0.0 77 639
r 0.474864 1 2 tcp 1040 ------- 0 0.0 3.0 91 542
r 0.474928 1 0 ack 40 ------- 0 3.0 0.0 64 606
r 0.475072 2 3 tcp 1040 ------- 0 0.0 3.0 84 526
r 0.47552 2 1 ack 40 ------- 0 3.0 0.0 71 624
r 0.476112 3 2 ack 40 ------- 0 3.0 0.0 78 642
r 0.476496 1 2 tcp 1040 ------- 0 0.0 3.0 92 543
r 0.47656 1 0 ack 40 ------- 0 3.0 0.0 65 609
r 0.476704 2 3 tcp 1040 ------- 0 0.0 3.0 85 530
r 0.477152 2 1 ack 40 ------- 0 3.0 0.0 72 627
r 0.477744 3 2 ack 40 ------- 0 3.0 0.0 79 644
r 0.478128 1 2 tcp 1040 ------- 0 0.0 3.0 93 545
r 0.478192 1 0 ack 40 ------- 0 3.0 0.0 66 612
r 0.478336 2 3 tcp 1040 ------- 0 0.0 3.0 86 531
r 0.478784 2 1 ack 40 ------- 0 3.0 0.0 73 629
r 0.47896 1 2 tcp 1040 ------- 0 0.0 3.0 94 546
r 0.479376 3 2 ack 40 ------- 0 3.0 0.0 80 647
r 0.479824 1 0 ack 40 ------- 0 3.0 0.0 67 614
r 0.479968 2 3 tcp 1040 ------- 0 0.0 3.0 87 535
r 0.480416 2 1 ack 40 ------- 0 3.0 0.0 74 632
r 0.480592 1 2 tcp 1040 ------- 0 0.0 3.0 95 548
r 0.4808 2 3 tcp 1040 ------- 0 0.0 3.0 88 536
r 0.481008 3 2 ack 40 ------- 0 3.0 0.0 81 649
r 0.481456 1 0 ack 40 ------- 0 3.0 0.0 68 617
r 0.48184 3 2 ack 40 ------- 0 3.0 0.0 82 651
r 0.482048 2 1 ack 40 ------- 0 3.0 0.0 75 634
r 0.482224 1 2 tcp 1040 ------- 0 0.0 3.0 96 549
r 0.482432 2 3 tcp 1040 ------- 0 0.0 3.0 89 538
r 0.48288 2 1 ack 40 ------- 0 3.0 0.0 76 636
r 0.483088 1 0 ack 40 ------- 0 3.0 0.0 69 619
r 0.483472 3 2 ack 40 ------- 0 3.0 0.0 83 654
r 0.483856 1 2 tcp 1040 ------- 0 0.0 3.0 97 552
r 0.48392 1 0 ack 40 ------- 0 3.0 0.0 70 621
r 0.484064 2 3 tcp 1040 ------- 0 0.0 3.0 90 539
r 0.484512 2 1 ack 40 ------- 0 3.0 0.0 77 639
r 0.484928 0 1 tcp 1040 ------- 0 0.0 3.0 127 656
r 0.485104 3 2 ack 40 ------- 0 3.0 0.0 84 661
r 0.485488 1 2 tcp 1040 ------- 0 0.0 3.0 98 553
r 0.485552 1 0 ack 40 ------- 0 3.0 0.0 71 624
r 0.485696 2 3 tcp 1040 ------- 0 0.0 3.0 91 542
r 0.48576 0 1 tcp 1040 ------- 0 0.0 3.0 128 657
r 0.486144 2 1 ack 40 ------- 0 3.0 0.0 78 642
r 0.486592 0 1 tcp 1040 ------- 0 0.0 3.0 129 658
r 0.486736 3 2 ack 40 ------- 0 3.0 0.0 85 665
r 0.48712 1 2 tcp 1040 ------- 0 0.0 3.0 99 556
r 0.487184 1 0 ack 40 ------- 0 3.0 0.0 72 627
r 0.487328 2 3 tcp 1040 ------- 0 0.0 3.0 92 543
r 0.487424 0 1 tcp 1040 ------- 0 0.0 3.0 130 659
r 0.487776 2 1 ack 40 ------- 0 3.0 0.0 79 644
r 0.487952 1 2 tcp 1040 ------- 0 0.0 3.0 100 557
r 0.488256 0 1 tcp 1040 ------- 0 0.0 3.0 131 663
r 0.488368 3 2 ack 40 ------- 0 3.0 0.0 86 670
r 0.488816 1 0 ack 40 ------- 0 3.0 0.0 73 629
r 0.48896 2 3 tcp 1040 ------- 0 0.0 3.0 93 545
r 0.489088 0 1 tcp 1040 ------- 0 0.0 3.0 132 664
r 0.489408 2 1 ack 40 ------- 0 3.0 0.0 80 647
r 0.489584 1 2 tcp 1040 ------- 0 0.0 3.0 101 559
r 0.489792 2 3 tcp 1040 ------- 0 0.0 3.0 94 546
r 0.48992 0 1 tcp 1040 ------- 0 0.0 3.0 133 668
r 0.49 3 2 ack 40 ------- 0 3.0 0.0 87 674
r 0.490416 1 2 tcp 1040 ------- 0 0.0 3.0 102 560
r 0.490448 1 0 ack 40 ------- 0 3.0 0.0 74 632
r 0.490752 0 1 tcp 1040 ------- 0 0.0 3.0 134 669
r 0.490832 3 2 ack 40 ------- 0 3.0 0.0 88 676
r 0.49104 2 1 ack 40 ------- 0 3.0 0.0 81 649
r 0.491248 1 2 tcp 1040 ------- 0 0.0 3.0 103 563
r 0.491424 2 3 tcp 1040 ------- 0 0.0 3.0 95 548
r 0.491584 0 1 tcp 1040 ------- 0 0.0 3.0 135 672
r 0.491872 2 1 ack 40 ------- 0 3.0 0.0 82 651
r 0.49208 1 0 ack 40 ------- 0 3.0 0.0 75 634
r 0.49208 1 2 tcp 1040 ------- 0 0.0 3.0 104 564
r 0.492416 0 1 tcp 1040 ------- 0 0.0 3.0 136 673
d 0.492416 1 2 tcp 1040 ------- 0 0.0 3.0 136 673
r 0.492464 3 2 ack 40 ------- 0 3.0 0.0 89 681
r 0.492912 1 0 ack 40 ------- 0 3.0 0.0 76 636
r 0.493056 2 3 tcp 1040 ------- 0 0.0 3.0 96 549
r 0.493248 0 1 tcp 1040 ------- 0 0.0 3.0 137 678
d 0.493248 1 2 tcp 1040 ------- 0 0.0 3.0 137 678
r 0.493504 2 1 ack 40 ------- 0 3.0 0.0 83 654
r 0.493712 1 2 tcp 1040 ------- 0 0.0 3.0 106 567
r 0.49408 0 1 tcp 1040 ------- 0 0.0 3.0 138 679
d 0.49408 1 2 tcp 1040 ------- 0 0.0 3.0 138 679
r 0.494096 3 2 ack 40 ------- 0 3.0 0.0 90 688
r 0.494544 1 0 ack 40 ------- 0 3.0 0.0 77 639
r 0.494544 1 2 tcp 1040 ------- 0 0.0 3.0 107 569
r 0.494688 2 3 tcp 1040 ------- 0 0.0 3.0 97 552
r 0.494912 0 1 tcp 1040 ------- 0 0.0 3.0 139 683
r 0.495136 2 1 ack 40 ------- 0 3.0 0.0 84 661
r 0.495376 1 2 tcp 1040 ------- 0 0.0 3.0 108 570
r 0.495728 3 2 ack 40 ------- 0 3.0 0.0 91 692
r 0.495744 0 1 tcp 1040 ------- 0 0.0 3.0 140 684
r 0.496176 1 0 ack 40 ------- 0 3.0 0.0 78 642
r 0.496208 1 2 tcp 1040 ------- 0 0.0 3.0 109 573
r 0.49632 2 3 tcp 1040 ------- 0 0.0 3.0 98 553
r 0.496576 0 1 tcp 1040 ------- 0 0.0 3.0 141 685
r 0.496768 2 1 ack 40 ------- 0 3.0 0.0 85 665
r 0.49704 1 2 tcp 1040 ------- 0 0.0 3.0 110 574
r 0.49736 3 2 ack 40 ------- 0 3.0 0.0 92 697
r 0.497408 0 1 tcp 1040 ------- 0 0.0 3.0 142 686
d 0.497408 1 2 tcp 1040 ------- 0 0.0 3.0 142 686
r 0.497808 1 0 ack 40 ------- 0 3.0 0.0 79 644
r 0.497952 2 3 tcp 1040 ------- 0 0.0 3.0 99 556
r 0.49824 0 1 tcp 1040 ------- 0 0.0 3.0 143 690
d 0.49824 1 2 tcp 1040 ------- 0 0.0 3.0 143 690
r 0.4984 2 1 ack 40 ------- 0 3.0 0.0 86 670
r 0.498672 1 2 tcp 1040 ------- 0 0.0 3.0 112 578