r 0.030032 0 1 tcp 40 ------- 0 0.0 3.0 0 0
r 0.040832 1 2 tcp 40 ------- 0 0.0 3.0 0 0
r 0.050864 2 3 tcp 40 ------- 0 0.0 3.0 0 0
r 0.060896 3 2 ack 40 ------- 0 3.0 0.0 0 15
r 0.070928 2 1 ack 40 ------- 0 3.0 0.0 0 15
r 0.08096 1 0 ack 40 ------- 0 3.0 0.0 0 15
r 0.091792 0 1 tcp 1040 ------- 0 0.0 3.0 1 34
r 0.092624 0 1 tcp 1040 ------- 0 0.0 3.0 2 35
r 0.102624 1 2 tcp 1040 ------- 0 0.0 3.0 1 34
r 0.104256 1 2 tcp 1040 ------- 0 0.0 3.0 2 35
r 0.113456 2 3 tcp 1040 ------- 0 0.0 3.0 1 34
r 0.115088 2 3 tcp 1040 ------- 0 0.0 3.0 2 35
r 0.123488 3 2 ack 40 ------- 0 3.0 0.0 1 57
r 0.12512 3 2 ack 40 ------- 0 3.0 0.0 2 59
r 0.13352 2 1 ack 40 ------- 0 3.0 0.0 1 57
r 0.135152 2 1 ack 40 ------- 0 3.0 0.0 2 59
r 0.143552 1 0 ack 40 ------- 0 3.0 0.0 1 57
r 0.145184 1 0 ack 40 ------- 0 3.0 0.0 2 59
r 0.154384 0 1 tcp 1040 ------- 0 0.0 3.0 3 77
r 0.155216 0 1 tcp 1040 ------- 0 0.0 3.0 4 78
r 0.156048 0 1 tcp 1040 ------- 0 0.0 3.0 5 80
r 0.15688 0 1 tcp 1040 ------- 0 0.0 3.0 6 81
r 0.165216 1 2 tcp 1040 ------- 0 0.0 3.0 3 77
r 0.166848 1 2 tcp 1040 ------- 0 0.0 3.0 4 78
r 0.16768 1 2 tcp 1040 ------- 0 0.0 3.0 5 80
r 0.169312 1 2 tcp 1040 ------- 0 0.0 3.0 6 81
r 0.176048 2 3 tcp 1040 ------- 0 0.0 3.0 3 77
r 0.17768 2 3 tcp 1040 ------- 0 0.0 3.0 4 78
r 0.178512 2 3 tcp 1040 ------- 0 0.0 3.0 5 80
r 0.180144 2 3 tcp 1040 ------- 0 0.0 3.0 6 81
r 0.18608 3 2 ack 40 ------- 0 3.0 0.0 3 102
r 0.187712 3 2 ack 40 ------- 0 3.0 0.0 4 104
r 0.188544 3 2 ack 40 ------- 0 3.0 0.0 5 105
r 0.190176 3 2 ack 40 ------- 0 3.0 0.0 6 107
r 0.196112 2 1 ack 40 ------- 0 3.0 0.0 3 102
r 0.197744 2 1 ack 40 ------- 0 3.0 0.0 4 104
r 0.198576 2 1 ack 40 ------- 0 3.0 0.0 5 105
r 0.200208 2 1 ack 40 ------- 0 3.0 0.0 6 107
r 0.206144 1 0 ack 40 ------- 0 3.0 0.0 3 102
r 0.207776 1 0 ack 40 ------- 0 3.0 0.0 4 104
r 0.208608 1 0 ack 40 ------- 0 3.0 0.0 5 105
r 0.21024 1 0 ack 40 ------- 0 3.0 0.0 6 107
r 0.216976 0 1 tcp 1040 ------- 0 0.0 3.0 7 125
r 0.217808 0 1 tcp 1040 ------- 0 0.0 3.0 8 126
r 0.21864 0 1 tcp 1040 ------- 0 0.0 3.0 9 128
r 0.219472 0 1 tcp 1040 ------- 0 0.0 3.0 10 129
r 0.220304 0 1 tcp 1040 ------- 0 0.0 3.0 11 130
r 0.221136 0 1 tcp 1040 ------- 0 0.0 3.0 12 131
r 0.221968 0 1 tcp 1040 ------- 0 0.0 3.0 13 133
r 0.2228 0 1 tcp 1040 ------- 0 0.0 3.0 14 134
r 0.227808 1 2 tcp 1040 ------- 0 0.0 3.0 7 125
r 0.22944 1 2 tcp 1040 ------- 0 0.0 3.0 8 126
r 0.230272 1 2 tcp 1040 ------- 0 0.0 3.0 9 128
r 0.231904 1 2 tcp 1040 ------- 0 0.0 3.0 10 129
r 0.232736 1 2 tcp 1040 ------- 0 0.0 3.0 11 130
r 0.234368 1 2 tcp 1040 ------- 0 0.0 3.0 12 131
r 0.2352 1 2 tcp 1040 ------- 0 0.0 3.0 13 133
r 0.236832 1 2 tcp 1040 ------- 0 0.0 3.0 14 134
r 0.23864 2 3 tcp 1040 ------- 0 0.0 3.0 7 125
r 0.240272 2 3 tcp 1040 ------- 0 0.0 3.0 8 126
r 0.241104 2 3 tcp 1040 ------- 0 0.0 3.0 9 128
r 0.242736 2 3 tcp 1040 ------- 0 0.0 3.0 10 129
r 0.243568 2 3 tcp 1040 ------- 0 0.0 3.0 11 130
r 0.2452 2 3 tcp 1040 ------- 0 0.0 3.0 12 131
r 0.246032 2 3 tcp 1040 ------- 0 0.0 3.0 13 133
r 0.247664 2 3 tcp 1040 ------- 0 0.0 3.0 14 134
r 0.248672 3 2 ack 40 ------- 0 3.0 0.0 7 153
r 0.250304 3 2 ack 40 ------- 0 3.0 0.0 8 155
r 0.251136 3 2 ack 40 ------- 0 3.0 0.0 9 156
r 0.252768 3 2 ack 40 ------- 0 3.0 0.0 10 158
r 0.2536 3 2 ack 40 ------- 0 3.0 0.0 11 160
r 0.255232 3 2 ack 40 ------- 0 3.0 0.0 12 162
r 0.256064 3 2 ack 40 ------- 0 3.0 0.0 13 164
r 0.257696 3 2 ack 40 ------- 0 3.0 0.0 14 166
r 0.258704 2 1 ack 40 ------- 0 3.0 0.0 7 153
r 0.260336 2 1 ack 40 ------- 0 3.0 0.0 8 155
r 0.261168 2 1 ack 40 ------- 0 3.0 0.0 9 156
r 0.2628 2 1 ack 40 ------- 0 3.0 0.0 10 158
r 0.263632 2 1 ack 40 ------- 0 3.0 0.0 11 160
r 0.265264 2 1 ack 40 ------- 0 3.0 0.0 12 162
r 0.266096 2 1 ack 40 ------- 0 3.0 0.0 13 164
r 0.267728 2 1 ack 40 ------- 0 3.0 0.0 14 166
r 0.268736 1 0 ack 40 ------- 0 3.0 0.0 7 153
r 0.270368 1 0 ack 40 ------- 0 3.0 0.0 8 155
r 0.2712 1 0 ack 40 ------- 0 3.0 0.0 9 156
r 0.272832 1 0 ack 40 ------- 0 3.0 0.0 10 158
r 0.273664 1 0 ack 40 ------- 0 3.0 0.0 11 160
r 0.275296 1 0 ack 40 ------- 0 3.0 0.0 12 162
r 0.276128 1 0 ack 40 ------- 0 3.0 0.0 13 164
r 0.27776 1 0 ack 40 ------- 0 3.0 0.0 14 166
r 0.279568 0 1 tcp 1040 ------- 0 0.0 3.0 15 180
r 0.2804 0 1 tcp 1040 ------- 0 0.0 3.0 16 181
r 0.281232 0 1 tcp 1040 ------- 0 0.0 3.0 17 183
r 0.282064 0 1 tcp 1040 ------- 0 0.0 3.0 18 184
r 0.282896 0 1 tcp 1040 ------- 0 0.0 3.0 19 185
r 0.283728 0 1 tcp 1040 ------- 0 0.0 3.0 20 186
r 0.28456 0 1 tcp 1040 ------- 0 0.0 3.0 21 188
r 0.285392 0 1 tcp 1040 ------- 0 0.0 3.0 22 189
r 0.286224 0 1 tcp 1040 ------- 0 0.0 3.0 23 191
r 0.287056 0 1 tcp 1040 ------- 0 0.0 3.0 24 192
r 0.287888 0 1 tcp 1040 ------- 0 0.0 3.0 25 194
r 0.28872 0 1 tcp 1040 ------- 0 0.0 3.0 26 195
r 0.289552 0 1 tcp 1040 ------- 0 0.0 3.0 27 196
r 0.290384 0 1 tcp 1040 ------- 0 0.0 3.0 28 197
r 0.2904 1 2 tcp 1040 ------- 0 0.0 3.0 15 180
r 0.291216 0 1 tcp 1040 ------- 0 0.0 3.0 29 199
r 0.292032 1 2 tcp 1040 ------- 0 0.0 3.0 16 181
r 0.292048 0 1 tcp 1040 ------- 0 0.0 3.0 30 200
r 0.293664 1 2 tcp 1040 ------- 0 0.0 3.0 17 183
r 0.294496 1 2 tcp 1040 ------- 0 0.0 3.0 18 184
r 0.296128 1 2 tcp 1040 ------- 0 0.0 3.0 19 185
r 0.29696 1 2 tcp 1040 ------- 0 0.0 3.0 20 186
r 0.298592 1 2 tcp 1040 ------- 0 0.0 3.0 21 188
r 0.299424 1 2 tcp 1040 ------- 0 0.0 3.0 22 189
r 0.301056 1 2 tcp 1040 ------- 0 0.0 3.0 23 191
r 0.301232 2 3 tcp 1040 ------- 0 0.0 3.0 15 180
r 0.301888 1 2 tcp 1040 ------- 0 0.0 3.0 24 192
r 0.302864 2 3 tcp 1040 ------- 0 0.0 3.0 16 181
r 0.30352 1 2 tcp 1040 ------- 0 0.0 3.0 25 194
r 0.304352 1 2 tcp 1040 ------- 0 0.0 3.0 26 195
r 0.304496 2 3 tcp 1040 ------- 0 0.0 3.0 17 183
r 0.305328 2 3 tcp 1040 ------- 0 0.0 3.0 18 184
r 0.305984 1 2 tcp 1040 ------- 0 0.0 3.0 27 196
r 0.306816 1 2 tcp 1040 ------- 0 0.0 3.0 28 197
r 0.30696 2 3 tcp 1040 ------- 0 0.0 3.0 19 185
r 0.307792 2 3 tcp 1040 ------- 0 0.0 3.0 20 186
r 0.308448 1 2 tcp 1040 ------- 0 0.0 3.0 29 199
r 0.30928 1 2 tcp 1040 ------- 0 0.0 3.0 30 200
r 0.309424 2 3 tcp 1040 ------- 0 0.0 3.0 21 188
r 0.310256 2 3 tcp 1040 ------- 0 0.0 3.0 22 189
r 0.311264 3 2 ack 40 ------- 0 3.0 0.0 15 216
r 0.311888 2 3 tcp 1040 ------- 0 0.0 3.0 23 191
r 0.31272 2 3 tcp 1040 ------- 0 0.0 3.0 24 192
r 0.312896 3 2 ack 40 ------- 0 3.0 0.0 16 218
r 0.314352 2 3 tcp 1040 ------- 0 0.0 3.0 25 194
r 0.314528 3 2 ack 40 ------- 0 3.0 0.0 17 220
r 0.315184 2 3 tcp 1040 ------- 0 0.0 3.0 26 195
r 0.31536 3 2 ack 40 ------- 0 3.0 0.0 18 222
r 0.316816 2 3 tcp 1040 ------- 0 0.0 3.0 27 196
r 0.316992 3 2 ack 40 ------- 0 3.0 0.0 19 224
r 0.317648 2 3 tcp 1040 ------- 0 0.0 3.0 28 197
r 0.317824 3 2 ack 40 ------- 0 3.0 0.0 20 225
r 0.31928 2 3 tcp 1040 ------- 0 0.0 3.0 29 199
r 0.319456 3 2 ack 40 ------- 0 3.0 0.0 21 227
r 0.320112 2 3 tcp 1040 ------- 0 0.0 3.0 30 200
r 0.320288 3 2 ack 40 ------- 0 3.0 0.0 22 229
r 0.321296 2 1 ack 40 ------- 0 3.0 0.0 15 216
r 0.32192 3 2 ack 40 ------- 0 3.0 0.0 23 231
r 0.322752 3 2 ack 40 ------- 0 3.0 0.0 24 232
r 0.322928 2 1 ack 40 ------- 0 3.0 0.0 16 218
r 0.324384 3 2 ack 40 ------- 0 3.0 0.0 25 234
r 0.32456 2 1 ack 40 ------- 0 3.0 0.0 17 220
r 0.325216 3 2 ack 40 ------- 0 3.0 0.0 26 236
r 0.325392 2 1 ack 40 ------- 0 3.0 0.0 18 222
r 0.326848 3 2 ack 40 ------- 0 3.0 0.0 27 238
r 0.327024 2 1 ack 40 ------- 0 3.0 0.0 19 224
r 0.32768 3 2 ack 40 ------- 0 3.0 0.0 28 239
r 0.327856 2 1 ack 40 ------- 0 3.0 0.0 20 225
r 0.329312 3 2 ack 40 ------- 0 3.0 0.0 29 241
r 0.329488 2 1 ack 40 ------- 0 3.0 0.0 21 227
r 0.330144 3 2 ack 40 ------- 0 3.0 0.0 30 243
r 0.33032 2 1 ack 40 ------- 0 3.0 0.0 22 229
r 0.331328 1 0 ack 40 ------- 0 3.0 0.0 15 216
r 0.331952 2 1 ack 40 ------- 0 3.0 0.0 23 231
r 0.332784 2 1 ack 40 ------- 0 3.0 0.0 24 232
r 0.33296 1 0 ack 40 ------- 0 3.0 0.0 16 218
r 0.334416 2 1 ack 40 ------- 0 3.0 0.0 25 234
r 0.334592 1 0 ack 40 ------- 0 3.0 0.0 17 220
r 0.335248 2 1 ack 40 ------- 0 3.0 0.0 26 236
r 0.335424 1 0 ack 40 ------- 0 3.0 0.0 18 222
r 0.33688 2 1 ack 40 ------- 0 3.0 0.0 27 238
r 0.337056 1 0 ack 40 ------- 0 3.0 0.0 19 224
r 0.337712 2 1 ack 40 ------- 0 3.0 0.0 28 239
r 0.337888 1 0 ack 40 ------- 0 3.0 0.0 20 225
r 0.339344 2 1 ack 40 ------- 0 3.0 0.0 29 241
r 0.33952 1 0 ack 40 ------- 0 3.0 0.0 21 227
r 0.340176 2 1 ack 40 ------- 0 3.0 0.0 30 243
r 0.340352 1 0 ack 40 ------- 0 3.0 0.0 22 229
r 0.341984 1 0 ack 40 ------- 0 3.0 0.0 23 231
r 0.34216 0 1 tcp 1040 ------- 0 0.0 3.0 31 251
r 0.342816 1 0 ack 40 ------- 0 3.0 0.0 24 232
r 0.342992 0 1 tcp 1040 ------- 0 0.0 3.0 32 252
r 0.343824 0 1 tcp 1040 ------- 0 0.0 3.0 33 254
r 0.344448 1 0 ack 40 ------- 0 3.0 0.0 25 234
r 0.344656 0 1 tcp 1040 ------- 0 0.0 3.0 34 255
r 0.34528 1 0 ack 40 ------- 0 3.0 0.0 26 236
r 0.345488 0 1 tcp 1040 ------- 0 0.0 3.0 35 257
r 0.34632 0 1 tcp 1040 ------- 0 0.0 3.0 36 258
r 0.346912 1 0 ack 40 ------- 0 3.0 0.0 27 238
r 0.347152 0 1 tcp 1040 ------- 0 0.0 3.0 37 259
r 0.347744 1 0 ack 40 ------- 0 3.0 0.0 28 239
r 0.347984 0 1 tcp 1040 ------- 0 0.0 3.0 38 260
r 0.348816 0 1 tcp 1040 ------- 0 0.0 3.0 39 262
r 0.349376 1 0 ack 40 ------- 0 3.0 0.0 29 241
r 0.349648 0 1 tcp 1040 ------- 0 0.0 3.0 40 263
r 0.350208 1 0 ack 40 ------- 0 3.0 0.0 30 243
r 0.35048 0 1 tcp 1040 ------- 0 0.0 3.0 41 265
r 0.351312 0 1 tcp 1040 ------- 0 0.0 3.0 42 266
r 0.352144 0 1 tcp 1040 ------- 0 0.0 3.0 43 268
r 0.352976 0 1 tcp 1040 ------- 0 0.0 3.0 44 269
r 0.353632 1 2 tcp 1040 ------- 0 0.0 3.0 31 251
r 0.353808 0 1 tcp 1040 ------- 0 0.0 3.0 45 270
r 0.354464 1 2 tcp 1040 ------- 0 0.0 3.0 32 252
r 0.35464 0 1 tcp 1040 ------- 0 0.0 3.0 46 271
r 0.355472 0 1 tcp 1040 ------- 0 0.0 3.0 47 273
r 0.356096 1 2 tcp 1040 ------- 0 0.0 3.0 33 254
r 0.356304 0 1 tcp 1040 ------- 0 0.0 3.0 48 274
r 0.356928 1 2 tcp 1040 ------- 0 0.0 3.0 34 255
r 0.357136 0 1 tcp 1040 ------- 0 0.0 3.0 49 276
r 0.357968 0 1 tcp 1040 ------- 0 0.0 3.0 50 277
r 0.35856 1 2 tcp 1040 ------- 0 0.0 3.0 35 257
r 0.3588 0 1 tcp 1040 ------- 0 0.0 3.0 51 279
r 0.359392 1 2 tcp 1040 ------- 0 0.0 3.0 36 258
r 0.359632 0 1 tcp 1040 ------- 0 0.0 3.0 52 280
r 0.360464 0 1 tcp 1040 ------- 0 0.0 3.0 53 282
r 0.361024 1 2 tcp 1040 ------- 0 0.0 3.0 37 259
r 0.361296 0 1 tcp 1040 ------- 0 0.0 3.0 54 283
r 0.361856 1 2 tcp 1040 ------- 0 0.0 3.0 38 260
r 0.362128 0 1 tcp 1040 ------- 0 0.0 3.0 55 285
r 0.36296 0 1 tcp 1040 ------- 0 0.0 3.0 56 286
r 0.363488 1 2 tcp 1040 ------- 0 0.0 3.0 39 262
r 0.363792 0 1 tcp 1040 ------- 0 0.0 3.0 57 287
r 0.36432 1 2 tcp 1040 ------- 0 0.0 3.0 40 263
r 0.364464 2 3 tcp 1040 ------- 0 0.0 3.0 31 251
r 0.364624 0 1 tcp 1040 ------- 0 0.0 3.0 58 288
r 0.365296 2 3 tcp 1040 ------- 0 0.0 3.0 32 252
r 0.365456 0 1 tcp 1040 ------- 0 0.0 3.0 59 290
r 0.365952 1 2 tcp 1040 ------- 0 0.0 3.0 41 265
r 0.366288 0 1 tcp 1040 ------- 0 0.0 3.0 60 291
r 0.366784 1 2 tcp 1040 ------- 0 0.0 3.0 42 266
r 0.366928 2 3 tcp 1040 ------- 0 0.0 3.0 33 254
r 0.36712 0 1 tcp 1040 ------- 0 0.0 3.0 61 293
r 0.36776 2 3 tcp 1040 ------- 0 0.0 3.0 34 255
r 0.367952 0 1 tcp 1040 ------- 0 0.0 3.0 62 294
r 0.368416 1 2 tcp 1040 ------- 0 0.0 3.0 43 268
r 0.369248 1 2 tcp 1040 ------- 0 0.0 3.0 44 269
r 0.369392 2 3 tcp 1040 ------- 0 0.0 3.0 35 257
r 0.370224 2 3 tcp 1040 ------- 0 0.0 3.0 36 258
r 0.37088 1 2 tcp 1040 ------- 0 0.0 3.0 45 270
r 0.371712 1 2 tcp 1040 ------- 0 0.0 3.0 46 271
r 0.371856 2 3 tcp 1040 ------- 0 0.0 3.0 37 259
r 0.372688 2 3 tcp 1040 ------- 0 0.0 3.0 38 260
r 0.373344 1 2 tcp 1040 ------- 0 0.0 3.0 47 273
r 0.374176 1 2 tcp 1040 ------- 0 0.0 3.0 48 274
r 0.37432 2 3 tcp 1040 ------- 0 0.0 3.0 39 262
r 0.374496 3 2 ack 40 ------- 0 3.0 0.0 31 304
r 0.375152 2 3 tcp 1040 ------- 0 0.0 3.0 40 263
r 0.375328 3 2 ack 40 ------- 0 3.0 0.0 32 305
r 0.375808 1 2 tcp 1040 ------- 0 0.0 3.0 49 276
r 0.37664 1 2 tcp 1040 ------- 0 0.0 3.0 50 277
r 0.376784 2 3 tcp 1040 ------- 0 0.0 3.0 41 265
r 0.37696 3 2 ack 40 ------- 0 3.0 0.0 33 307
r 0.377616 2 3 tcp 1040 ------- 0 0.0 3.0 42 266
r 0.377792 3 2 ack 40 ------- 0 3.0 0.0 34 309
r 0.378272 1 2 tcp 1040 ------- 0 0.0 3.0 51 279
r 0.379248 2 3 tcp 1040 ------- 0 0.0 3.0 43 268
r 0.379424 3 2 ack 40 ------- 0 3.0 0.0 35 311
r 0.379904 1 2 tcp 1040 ------- 0 0.0 3.0 52 280
r 0.38008 2 3 tcp 1040 ------- 0 0.0 3.0 44 269
r 0.380256 3 2 ack 40 ------- 0 3.0 0.0 36 312
r 0.380736 1 2 tcp 1040 ------- 0 0.0 3.0 53 282
r 0.381712 2 3 tcp 1040 ------- 0 0.0 3.0 45 270
r 0.381888 3 2 ack 40 ------- 0 3.0 0.0 37 314
r 0.382368 1 2 tcp 1040 ------- 0 0.0 3.0 54 283
r 0.382544 2 3 tcp 1040 ------- 0 0.0 3.0 46 271
r 0.38272 3 2 ack 40 ------- 0 3.0 0.0 38 316
r 0.3832 1 2 tcp 1040 ------- 0 0.0 3.0 55 285
r 0.384176 2 3 tcp 1040 ------- 0 0.0 3.0 47 273
r 0.384352 3 2 ack 40 ------- 0 3.0 0.0 39 318
r 0.384528 2 1 ack 40 ------- 0 3.0 0.0 31 304
r 0.384832 1 2 tcp 1040 ------- 0 0.0 3.0 56 286
r 0.385008 2 3 tcp 1040 ------- 0 0.0 3.0 48 274
r 0.385184 3 2 ack 40 ------- 0 3.0 0.0 40 319
r 0.38536 2 1 ack 40 ------- 0 3.0 0.0 32 305
r 0.385664 1 2 tcp 1040 ------- 0 0.0 3.0 57 287
r 0.38664 2 3 tcp 1040 ------- 0 0.0 3.0 49 276
r 0.386816 3 2 ack 40 ------- 0 3.0 0.0 41 321
r 0.386992 2 1 ack 40 ------- 0 3.0 0.0 33 307
r 0.387296 1 2 tcp 1040 ------- 0 0.0 3.0 58 288
r 0.387472 2 3 tcp 1040 ------- 0 0.0 3.0 50 277
r 0.387648 3 2 ack 40 ------- 0 3.0 0.0 42 323
r 0.387824 2 1 ack 40 ------- 0 3.0 0.0 34 309
r 0.388128 1 2 tcp 1040 ------- 0 0.0 3.0 59 290
r 0.389104 2 3 tcp 1040 ------- 0 0.0 3.0 51 279
r 0.38928 3 2 ack 40 ------- 0 3.0 0.0 43 325
r 0.389456 2 1 ack 40 ------- 0 3.0 0.0 35 311
r 0.38976 1 2 tcp 1040 ------- 0 0.0 3.0 60 291
r 0.390112 3 2 ack 40 ------- 0 3.0 0.0 44 326
r 0.390288 2 1 ack 40 ------- 0 3.0 0.0 36 312
r 0.390592 1 2 tcp 1040 ------- 0 0.0 3.0 61 293
r 0.390736 2 3 tcp 1040 ------- 0 0.0 3.0 52 280
r 0.391568 2 3 tcp 1040 ------- 0 0.0 3.0 53 282
r 0.391744 3 2 ack 40 ------- 0 3.0 0.0 45 328
r 0.39192 2 1 ack 40 ------- 0 3.0 0.0 37 314
r 0.392224 1 2 tcp 1040 ------- 0 0.0 3.0 62 294
r 0.392576 3 2 ack 40 ------- 0 3.0 0.0 46 330
r 0.392752 2 1 ack 40 ------- 0 3.0 0.0 38 316
r 0.3932 2 3 tcp 1040 ------- 0 0.0 3.0 54 283
r 0.394032 2 3 tcp 1040 ------- 0 0.0 3.0 55 285
r 0.394208 3 2 ack 40 ------- 0 3.0 0.0 47 332
r 0.394384 2 1 ack 40 ------- 0 3.0 0.0 39 318
r 0.39456 1 0 ack 40 ------- 0 3.0 0.0 31 304
r 0.39504 3 2 ack 40 ------- 0 3.0 0.0 48 333
r 0.395216 2 1 ack 40 ------- 0 3.0 0.0 40 319
r 0.395392 1 0 ack 40 ------- 0 3.0 0.0 32 305
r 0.395664 2 3 tcp 1040 ------- 0 0.0 3.0 56 286
r 0.396496 2 3 tcp 1040 ------- 0 0.0 3.0 57 287
r 0.396672 3 2 ack 40 ------- 0 3.0 0.0 49 335
r 0.396848 2 1 ack 40 ------- 0 3.0 0.0 41 321
r 0.397024 1 0 ack 40 ------- 0 3.0 0.0 33 307
r 0.397504 3 2 ack 40 ------- 0 3.0 0.0 50 337
r 0.39768 2 1 ack 40 ------- 0 3.0 0.0 42 323
r 0.397856 1 0 ack 40 ------- 0 3.0 0.0 34 309
r 0.398128 2 3 tcp 1040 ------- 0 0.0 3.0 58 288
r 0.39896 2 3 tcp 1040 ------- 0 0.0 3.0 59 290
r 0.399136 3 2 ack 40 ------- 0 3.0 0.0 51 339
r 0.399312 2 1 ack 40 ------- 0 3.0 0.0 43 325
r 0.399488 1 0 ack 40 ------- 0 3.0 0.0 35 311
r 0.400144 2 1 ack 40 ------- 0 3.0 0.0 44 326
r 0.40032 1 0 ack 40 ------- 0 3.0 0.0 36 312
r 0.400592 2 3 tcp 1040 ------- 0 0.0 3.0 60 291
r 0.400768 3 2 ack 40 ------- 0 3.0 0.0 52 341
r 0.401424 2 3 tcp 1040 ------- 0 0.0 3.0 61 293
r 0.4016 3 2 ack 40 ------- 0 3.0 0.0 53 342
r 0.401776 2 1 ack 40 ------- 0 3.0 0.0 45 328
r 0.401952 1 0 ack 40 ------- 0 3.0 0.0 37 314
r 0.402608 2 1 ack 40 ------- 0 3.0 0.0 46 330
r 0.402784 1 0 ack 40 ------- 0 3.0 0.0 38 316
r 0.403056 2 3 tcp 1040 ------- 0 0.0 3.0 62 294
r 0.403232 3 2 ack 40 ------- 0 3.0 0.0 54 345
r 0.404064 3 2 ack 40 ------- 0 3.0 0.0 55 346
r 0.40424 2 1 ack 40 ------- 0 3.0 0.0 47 332
r 0.404416 1 0 ack 40 ------- 0 3.0 0.0 39 318
r 0.405072 2 1 ack 40 ------- 0 3.0 0.0 48 333
r 0.405248 1 0 ack 40 ------- 0 3.0 0.0 40 319
r 0.405392 0 1 tcp 1040 ------- 0 0.0 3.0 63 347
r 0.405696 3 2 ack 40 ------- 0 3.0 0.0 56 352
r 0.406224 0 1 tcp 1040 ------- 0 0.0 3.0 64 348
r 0.406528 3 2 ack 40 ------- 0 3.0 0.0 57 354
r 0.406704 2 1 ack 40 ------- 0 3.0 0.0 49 335
r 0.40688 1 0 ack 40 ------- 0 3.0 0.0 41 321
r 0.407056 0 1 tcp 1040 ------- 0 0.0 3.0 65 350
r 0.407536 2 1 ack 40 ------- 0 3.0 0.0 50 337
r 0.407712 1 0 ack 40 ------- 0 3.0 0.0 42 323
r 0.407888 0 1 tcp 1040 ------- 0 0.0 3.0 66 351
r 0.40816 3 2 ack 40 ------- 0 3.0 0.0 58 360
r 0.40872 0 1 tcp 1040 ------- 0 0.0 3.0 67 355
r 0.408992 3 2 ack 40 ------- 0 3.0 0.0 59 361
r 0.409168 2 1 ack 40 ------- 0 3.0 0.0 51 339
r 0.409344 1 0 ack 40 ------- 0 3.0 0.0 43 325
r 0.409552 0 1 tcp 1040 ------- 0 0.0 3.0 68 356
r 0.410176 1 0 ack 40 ------- 0 3.0 0.0 44 326
r 0.410384 0 1 tcp 1040 ------- 0 0.0 3.0 69 357
r 0.410624 3 2 ack 40 ------- 0 3.0 0.0 60 367
r 0.4108 2 1 ack 40 ------- 0 3.0 0.0 52 341
r 0.411216 0 1 tcp 1040 ------- 0 0.0 3.0 70 358
r 0.411456 3 2 ack 40 ------- 0 3.0 0.0 61 369
r 0.411632 2 1 ack 40 ------- 0 3.0 0.0 53 342
r 0.411808 1 0 ack 40 ------- 0 3.0 0.0 45 328
r 0.412048 0 1 tcp 1040 ------- 0 0.0 3.0 71 362
r 0.41264 1 0 ack 40 ------- 0 3.0 0.0 46 330
r 0.41288 0 1 tcp 1040 ------- 0 0.0 3.0 72 363
r 0.413088 3 2 ack 40 ------- 0 3.0 0.0 62 375
r 0.413264 2 1 ack 40 ------- 0 3.0 0.0 54 345
r 0.413712 0 1 tcp 1040 ------- 0 0.0 3.0 73 365
r 0.414096 2 1 ack 40 ------- 0 3.0 0.0 55 346
r 0.414272 1 0 ack 40 ------- 0 3.0 0.0 47 332
r 0.414544 0 1 tcp 1040 ------- 0 0.0 3.0 74 366
r 0.415104 1 0 ack 40 ------- 0 3.0 0.0 48 333
r 0.415376 0 1 tcp 1040 ------- 0 0.0 3.0 75 370
r 0.415728 2 1 ack 40 ------- 0 3.0 0.0 56 352
r 0.416208 0 1 tcp 1040 ------- 0 0.0 3.0 76 371
r 0.416224 1 2 tcp 1040 ------- 0 0.0 3.0 63 347
r 0.41656 2 1 ack 40 ------- 0 3.0 0.0 57 354
r 0.416736 1 0 ack 40 ------- 0 3.0 0.0 49 335
r 0.41704 0 1 tcp 1040 ------- 0 0.0 3.0 77 372
r 0.417568 1 0 ack 40 ------- 0 3.0 0.0 50 337
r 0.417856 1 2 tcp 1040 ------- 0 0.0 3.0 64 348
r 0.417872 0 1 tcp 1040 ------- 0 0.0 3.0 78 373
r 0.418192 2 1 ack 40 ------- 0 3.0 0.0 58 360
r 0.418688 1 2 tcp 1040 ------- 0 0.0 3.0 65 350
r 0.418704 0 1 tcp 1040 ------- 0 0.0 3.0 79 377
r 0.419024 2 1 ack 40 ------- 0 3.0 0.0 59 361
r 0.4192 1 0 ack 40 ------- 0 3.0 0.0 51 339
r 0.419536 0 1 tcp 1040 ------- 0 0.0 3.0 80 378
r 0.42032 1 2 tcp 1040 ------- 0 0.0 3.0 66 351
r 0.420368 0 1 tcp 1040 ------- 0 0.0 3.0 81 379
r 0.420656 2 1 ack 40 ------- 0 3.0 0.0 60 367
r 0.420832 1 0 ack 40 ------- 0 3.0 0.0 52 341
r 0.421152 1 2 tcp 1040 ------- 0 0.0 3.0 67 355
r 0.4212 0 1 tcp 1040 ------- 0 0.0 3.0 82 380
r 0.421488 2 1 ack 40 ------- 0 3.0 0.0 61 369
r 0.421664 1 0 ack 40 ------- 0 3.0 0.0 53 342
r 0.422032 0 1 tcp 1040 ------- 0 0.0 3.0 83 382
r 0.422784 1 2 tcp 1040 ------- 0 0.0 3.0 68 356
r 0.422864 0 1 tcp 1040 ------- 0 0.0 3.0 84 383
r 0.42312 2 1 ack 40 ------- 0 3.0 0.0 62 375
r 0.423296 1 0 ack 40 ------- 0 3.0 0.0 54 345
r 0.423616 1 2 tcp 1040 ------- 0 0.0 3.0 69 357
r 0.423696 0 1 tcp 1040 ------- 0 0.0 3.0 85 385
r 0.424128 1 0 ack 40 ------- 0 3.0 0.0 55 346
r 0.424528 0 1 tcp 1040 ------- 0 0.0 3.0 86 386
r 0.425248 1 2 tcp 1040 ------- 0 0.0 3.0 70 358
r 0.42536 0 1 tcp 1040 ------- 0 0.0 3.0 87 388
r 0.42576 1 0 ack 40 ------- 0 3.0 0.0 56 352
r 0.42608 1 2 tcp 1040 ------- 0 0.0 3.0 71 362
r 0.426192 0 1 tcp 1040 ------- 0 0.0 3.0 88 389
r 0.426592 1 0 ack 40 ------- 0 3.0 0.0 57 354
r 0.427024 0 1 tcp 1040 ------- 0 0.0 3.0 89 390
r 0.427056 2 3 tcp 1040 ------- 0 0.0 3.0 63 347
r 0.427712 1 2 tcp 1040 ------- 0 0.0 3.0 72 363
r 0.427856 0 1 tcp 1040 ------- 0 0.0 3.0 90 391
r 0.428224 1 0 ack 40 ------- 0 3.0 0.0 58 360
r 0.428544 1 2 tcp 1040 ------- 0 0.0 3.0 73 365
r 0.428688 0 1 tcp 1040 ------- 0 0.0 3.0 91 393
r 0.428688 2 3 tcp 1040 ------- 0 0.0 3.0 64 348
r 0.429056 1 0 ack 40 ------- 0 3.0 0.0 59 361
r 0.42952 0 1 tcp 1040 ------- 0 0.0 3.0 92 394
r 0.42952 2 3 tcp 1040 ------- 0 0.0 3.0 65 350
r 0.430176 1 2 tcp 1040 ------- 0 0.0 3.0 74 366
r 0.430352 0 1 tcp 1040 ------- 0 0.0 3.0 93 396
r 0.430688 1 0 ack 40 ------- 0 3.0 0.0 60 367
r 0.431008 1 2 tcp 1040 ------- 0 0.0 3.0 75 370
r 0.431152 2 3 tcp 1040 ------- 0 0.0 3.0 66 351
r 0.431184 0 1 tcp 1040 ------- 0 0.0 3.0 94 397
r 0.43152 1 0 ack 40 ------- 0 3.0 0.0 61 369
r 0.431984 2 3 tcp 1040 ------- 0 0.0 3.0 67 355
r 0.432016 0 1 tcp 1040 ------- 0 0.0 3.0 95 399
r 0.43264 1 2 tcp 1040 ------- 0 0.0 3.0 76 371
r 0.432848 0 1 tcp 1040 ------- 0 0.0 3.0 96 400
r 0.433152 1 0 ack 40 ------- 0 3.0 0.0 62 375
r 0.433472 1 2 tcp 1040 ------- 0 0.0 3.0 77 372
r 0.433616 2 3 tcp 1040 ------- 0 0.0 3.0 68 356
r 0.43368 0 1 tcp 1040 ------- 0 0.0 3.0 97 401
r 0.434448 2 3 tcp 1040 ------- 0 0.0 3.0 69 357
r 0.434512 0 1 tcp 1040 ------- 0 0.0 3.0 98 402
r 0.435104 1 2 tcp 1040 ------- 0 0.0 3.0 78 373
r 0.435344 0 1 tcp 1040 ------- 0 0.0 3.0 99 404
r 0.435936 1 2 tcp 1040 ------- 0 0.0 3.0 79 377
r 0.43608 2 3 tcp 1040 ------- 0 0.0 3.0 70 358
r 0.436176 0 1 tcp 1040 ------- 0 0.0 3.0 100 405
r 0.436912 2 3 tcp 1040 ------- 0 0.0 3.0 71 362
r 0.437008 0 1 tcp 1040 ------- 0 0.0 3.0 101 407
r 0.437088 3 2 ack 40 ------- 0 3.0 0.0 63 429
r 0.437568 1 2 tcp 1040 ------- 0 0.0 3.0 80 378
r 0.43784 0 1 tcp 1040 ------- 0 0.0 3.0 102 408
r 0.4384 1 2 tcp 1040 ------- 0 0.0 3.0 81 379
r 0.438544 2 3 tcp 1040 ------- 0 0.0 3.0 72 363
r 0.438672 0 1 tcp 1040 ------- 0 0.0 3.0 103 410
r 0.43872 3 2 ack 40 ------- 0 3.0 0.0 64 433
r 0.439376 2 3 tcp 1040 ------- 0 0.0 3.0 73 365
r 0.439504 0 1 tcp 1040 ------- 0 0.0 3.0 104 411
r 0.439552 3 2 ack 40 ------- 0 3.0 0.0 65 436
r 0.440032 1 2 tcp 1040 ------- 0 0.0 3.0 82 380
r 0.440336 0 1 tcp 1040 ------- 0 0.0 3.0 105 413
r 0.441008 2 3 tcp 1040 ------- 0 0.0 3.0 74 366
r 0.441168 0 1 tcp 1040 ------- 0 0.0 3.0 106 414
r 0.441184 3 2 ack 40 ------- 0 3.0 0.0 66 440
r 0.441664 1 2 tcp 1040 ------- 0 0.0 3.0 83 382
r 0.44184 2 3 tcp 1040 ------- 0 0.0 3.0 75 370
r 0.442 0 1 tcp 1040 ------- 0 0.0 3.0 107 415
r 0.442016 3 2 ack 40 ------- 0 3.0 0.0 67 444
r 0.442496 1 2 tcp 1040 ------- 0 0.0 3.0 84 383
r 0.442832 0 1 tcp 1040 ------- 0 0.0 3.0 108 416
r 0.443472 2 3 tcp 1040 ------- 0 0.0 3.0 76 371
r 0.443648 3 2 ack 40 ------- 0 3.0 0.0 68 448
r 0.443664 0 1 tcp 1040 ------- 0 0.0 3.0 109 418
r 0.444128 1 2 tcp 1040 ------- 0 0.0 3.0 85 385
r 0.444304 2 3 tcp 1040 ------- 0 0.0 3.0 77 372
r 0.44448 3 2 ack 40 ------- 0 3.0 0.0 69 449
r 0.444496 0 1 tcp 1040 ------- 0 0.0 3.0 110 419
r 0.44496 1 2 tcp 1040 ------- 0 0.0 3.0 86 386
r 0.445328 0 1 tcp 1040 ------- 0 0.0 3.0 111 421
r 0.445936 2 3 tcp 1040 ------- 0 0.0 3.0 78 373
r 0.446112 3 2 ack 40 ------- 0 3.0 0.0 70 451
r 0.44616 0 1 tcp 1040 ------- 0 0.0 3.0 112 422
r 0.446592 1 2 tcp 1040 ------- 0 0.0 3.0 87 388
r 0.446768 2 3 tcp 1040 ------- 0 0.0 3.0 79 377
r 0.446944 3 2 ack 40 ------- 0 3.0 0.0 71 453
r 0.446992 0 1 tcp 1040 ------- 0 0.0 3.0 113 424
r 0.44712 2 1 ack 40 ------- 0 3.0 0.0 63 429
r 0.447424 1 2 tcp 1040 ------- 0 0.0 3.0 88 389
r 0.447824 0 1 tcp 1040 ------- 0 0.0 3.0 114 425
r 0.4484 2 3 tcp 1040 ------- 0 0.0 3.0 80 378
r 0.448576 3 2 ack 40 ------- 0 3.0 0.0 72 455
r 0.448656 0 1 tcp 1040 ------- 0 0.0 3.0 115 426
r 0.448752 2 1 ack 40 ------- 0 3.0 0.0 64 433
r 0.449056 1 2 tcp 1040 ------- 0 0.0 3.0 89 390
r 0.449232 2 3 tcp 1040 ------- 0 0.0 3.0 81 379
r 0.449408 3 2 ack 40 ------- 0 3.0 0.0 73 456
r 0.449488 0 1 tcp 1040 ------- 0 0.0 3.0 116 427
r 0.449584 2 1 ack 40 ------- 0 3.0 0.0 65 436
r 0.449888 1 2 tcp 1040 ------- 0 0.0 3.0 90 391
r 0.45032 0 1 tcp 1040 ------- 0 0.0 3.0 117 430
r 0.450864 2 3 tcp 1040 ------- 0 0.0 3.0 82 380
r 0.45104 3 2 ack 40 ------- 0 3.0 0.0 74 458
r 0.451152 0 1 tcp 1040 ------- 0 0.0 3.0 118 431
r 0.451216 2 1 ack 40 ------- 0 3.0 0.0 66 440
r 0.45152 1 2 tcp 1040 ------- 0 0.0 3.0 91 393
r 0.451872 3 2 ack 40 ------- 0 3.0 0.0 75 460
r 0.451984 0 1 tcp 1040 ------- 0 0.0 3.0 119 434
r 0.452048 2 1 ack 40 ------- 0 3.0 0.0 67 444
r 0.452352 1 2 tcp 1040 ------- 0 0.0 3.0 92 394
r 0.452496 2 3 tcp 1040 ------- 0 0.0 3.0 83 382
r 0.452816 0 1 tcp 1040 ------- 0 0.0 3.0 120 435
r 0.453328 2 3 tcp 1040 ------- 0 0.0 3.0 84 383
r 0.453504 3 2 ack 40 ------- 0 3.0 0.0 76 462
r 0.453648 0 1 tcp 1040 ------- 0 0.0 3.0 121 438
r 0.45368 2 1 ack 40 ------- 0 3.0 0.0 68 448
r 0.453984 1 2 tcp 1040 ------- 0 0.0 3.0 93 396
r 0.454336 3 2 ack 40 ------- 0 3.0 0.0 77 463
r 0.45448 0 1 tcp 1040 ------- 0 0.0 3.0 122 439
r 0.454512 2 1 ack 40 ------- 0 3.0 0.0 69 449
r 0.454816 1 2 tcp 1040 ------- 0 0.0 3.0 94 397
r 0.45496 2 3 tcp 1040 ------- 0 0.0 3.0 85 385
r 0.455312 0 1 tcp 1040 ------- 0 0.0 3.0 123 441
r 0.455792 2 3 tcp 1040 ------- 0 0.0 3.0 86 386
r 0.455968 3 2 ack 40 ------- 0 3.0 0.0 78 465
r 0.456144 0 1 tcp 1040 ------- 0 0.0 3.0 124 442
r 0.456144 2 1 ack 40 ------- 0 3.0 0.0 70 451
r 0.456448 1 2 tcp 1040 ------- 0 0.0 3.0 95 399
r 0.4568 3 2 ack 40 ------- 0 3.0 0.0 79 467
r 0.456976 0 1 tcp 1040 ------- 0 0.0 3.0 125 445
r 0.456976 2 1 ack 40 ------- 0 3.0 0.0 71 453
r 0.457152 1 0 ack 40 ------- 0 3.0 0.0 63 429
r 0.45728 1 2 tcp 1040 ------- 0 0.0 3.0 96 400
r 0.457424 2 3 tcp 1040 ------- 0 0.0 3.0 87 388
r 0.457808 0 1 tcp 1040 ------- 0 0.0 3.0 126 446
r 0.458256 2 3 tcp 1040 ------- 0 0.0 3.0 88 389
r 0.458432 3 2 ack 40 ------- 0 3.0 0.0 80 469
r 0.458608 2 1 ack 40 ------- 0 3.0 0.0 72 455
r 0.458784 1 0 ack 40 ------- 0 3.0 0.0 64 433
r 0.458912 1 2 tcp 1040 ------- 0 0.0 3.0 97 401
r 0.459264 3 2 ack 40 ------- 0 3.0 0.0 81 471
r 0.45944 2 1 ack 40 ------- 0 3.0 0.0 73 456
r 0.459616 1 0 ack 40 ------- 0 3.0 0.0 65 436
r 0.459744 1 2 tcp 1040 ------- 0 0.0 3.0 98 402
r 0.459888 2 3 tcp 1040 ------- 0 0.0 3.0 89 390
r 0.46072 2 3 tcp 1040 ------- 0 0.0 3.0 90 391
r 0.460896 3 2 ack 40 ------- 0 3.0 0.0 82 473
r 0.461072 2 1 ack 40 ------- 0 3.0 0.0 74 458
r 0.461248 1 0 ack 40 ------- 0 3.0 0.0 66 440
r 0.461376 1 2 tcp 1040 ------- 0 0.0 3.0 99 404
r 0.461904 2 1 ack 40 ------- 0 3.0 0.0 75 460
r 0.46208 1 0 ack 40 ------- 0 3.0 0.0 67 444
r 0.462208 1 2 tcp 1040 ------- 0 0.0 3.0 100 405
r 0.462352 2 3 tcp 1040 ------- 0 0.0 3.0 91 393
r 0.462528 3 2 ack 40 ------- 0 3.0 0.0 83 475
r 0.463184 2 3 tcp 1040 ------- 0 0.0 3.0 92 394
r 0.46336 3 2 ack 40 ------- 0 3.0 0.0 84 476
r 0.463536 2 1 ack 40 ------- 0 3.0 0.0 76 462
r 0.463712 1 0 ack 40 ------- 0 3.0 0.0 68 448
r 0.46384 1 2 tcp 1040 ------- 0 0.0 3.0 101 407
r 0.464368 2 1 ack 40 ------- 0 3.0 0.0 77 463
r 0.464544 1 0 ack 40 ------- 0 3.0 0.0 69 449
r 0.464672 1 2 tcp 1040 ------- 0 0.0 3.0 102 408
r 0.464816 2 3 tcp 1040 ------- 0 0.0 3.0 93 396
r 0.464992 3 2 ack 40 ------- 0 3.0 0.0 85 478
r 0.465648 2 3 tcp 1040 ------- 0 0.0 3.0 94 397
r 0.465824 3 2 ack 40 ------- 0 3.0 0.0 86 480
r 0.466 2 1 ack 40 ------- 0 3.0 0.0 78 465
r 0.466176 1 0 ack 40 ------- 0 3.0 0.0 70 451
r 0.466304 1 2 tcp 1040 ------- 0 0.0 3.0 103 410
r 0.466832 2 1 ack 40 ------- 0 3.0 0.0 79 467
r 0.467008 1 0 ack 40 ------- 0 3.0 0.0 71 453
r 0.467136 1 2 tcp 1040 ------- 0 0.0 3.0 104 411
r 0.46728 2 3 tcp 1040 ------- 0 0.0 3.0 95 399
r 0.467456 3 2 ack 40 ------- 0 3.0 0.0 87 484
r 0.467984 0 1 tcp 1040 ------- 0 0.0 3.0 127 481
r 0.468112 2 3 tcp 1040 ------- 0 0.0 3.0 96 400
r 0.468288 3 2 ack 40 ------- 0 3.0 0.0 88 485
r 0.468464 2 1 ack 40 ------- 0 3.0 0.0 80 469
r 0.46864 1 0 ack 40 ------- 0 3.0 0.0 72 455
r 0.468768 1 2 tcp 1040 ------- 0 0.0 3.0 105 413
r 0.468816 0 1 tcp 1040 ------- 0 0.0 3.0 128 482
r 0.469296 2 1 ack 40 ------- 0 3.0 0.0 81 471
r 0.469472 1 0 ack 40 ------- 0 3.0 0.0 73 456
r 0.4696 1 2 tcp 1040 ------- 0 0.0 3.0 106 414
r 0.469648 0 1 tcp 1040 ------- 0 0.0 3.0 129 486
r 0.469744 2 3 tcp 1040 ------- 0 0.0 3.0 97 401
r 0.46992 3 2 ack 40 ------- 0 3.0 0.0 89 491
r 0.47048 0 1 tcp 1040 ------- 0 0.0 3.0 130 487
r 0.470576 2 3 tcp 1040 ------- 0 0.0 3.0 98 402
r 0.470752 3 2 ack 40 ------- 0 3.0 0.0 90 493
r 0.470928 2 1 ack 40 ------- 0 3.0 0.0 82 473
r 0.471104 1 0 ack 40 ------- 0 3.0 0.0 74 458
r 0.471232 1 2 tcp 1040 ------- 0 0.0 3.0 107 415
r 0.471312 0 1 tcp 1040 ------- 0 0.0 3.0 131 489
r 0.471936 1 0 ack 40 ------- 0 3.0 0.0 75 460
r 0.472144 0 1 tcp 1040 ------- 0 0.0 3.0 132 490
r 0.472208 2 3 tcp 1040 ------- 0 0.0 3.0 99 404
r 0.472384 3 2 ack 40 ------- 0 3.0 0.0 91 499
r 0.47256 2 1 ack 40 ------- 0 3.0 0.0 83 475
r 0.472864 1 2 tcp 1040 ------- 0 0.0 3.0 108 416
r 0.472976 0 1 tcp 1040 ------- 0 0.0 3.0 133 494
r 0.47304 2 3 tcp 1040 ------- 0 0.0 3.0 100 405
r 0.473216 3 2 ack 40 ------- 0 3.0 0.0 92 500
r 0.473392 2 1 ack 40 ------- 0 3.0 0.0 84 476
r 0.473568 1 0 ack 40 ------- 0 3.0 0.0 76 462
r 0.473696 1 2 tcp 1040 ------- 0 0.0 3.0 109 418
r 0.473808 0 1 tcp 1040 ------- 0 0.0 3.0 134 495
r 0.4744 1 0 ack 40 ------- 0 3.0 0.0 77 463
r 0.47464 0 1 tcp 1040 ------- 0 0.0 3.0 135 497
r 0.474672 2 3 tcp 1040 ------- 0 0.0 3.0 101 407
r 0.474848 3 2 ack 40 ------- 0 3.0 0.0 93 506
r 0.475024 2 1 ack 40 ------- 0 3.0 0.0 85 478
r 0.475328 1 2 tcp 1040 ------- 0 0.0 3.0 110 419
r 0.475472 0 1 tcp 1040 ------- 0 0.0 3.0 136 498
r 0.475504 2 3 tcp 1040 ------- 0 0.0 3.0 102 408
r 0.47568 3 2 ack 40 ------- 0 3.0 0.0 94 508
r 0.475856 2 1 ack 40 ------- 0 3.0 0.0 86 480
r 0.476032 1 0 ack 40 ------- 0 3.0 0.0 78 465
r 0.47616 1 2 tcp 1040 ------- 0 0.0 3.0 111 421
r 0.476304 0 1 tcp 1040 ------- 0 0.0 3.0 137 502
r 0.476864 1 0 ack 40 ------- 0 3.0 0.0 79 467
r 0.477136 0 1 tcp 1040 ------- 0 0.0 3.0 138 503
r 0.477136 2 3 tcp 1040 ------- 0 0.0 3.0 103 410
r 0.477312 3 2 ack 40 ------- 0 3.0 0.0 95 514
r 0.477488 2 1 ack 40 ------- 0 3.0 0.0 87 484
r 0.477792 1 2 tcp 1040 ------- 0 0.0 3.0 112 422
r 0.477968 0 1 tcp 1040 ------- 0 0.0 3.0 139 504
r 0.477968 2 3 tcp 1040 ------- 0 0.0 3.0 104 411
r 0.478144 3 2 ack 40 ------- 0 3.0 0.0 96 515
r 0.47832 2 1 ack 40 ------- 0 3.0 0.0 88 485
r 0.478496 1 0 ack 40 ------- 0 3.0 0.0 80 469
r 0.478624 1 2 tcp 1040 ------- 0 0.0 3.0 113 424
r 0.4788 0 1 tcp 1040 ------- 0 0.0 3.0 140 505